LAMMPS (29 Sep 2021 - Update 2)
Lattice spacing in x,y,z = 1.2843567 2.2245711 1.2843567
Created orthogonal box = (0.0000000 0.0000000 -0.32108918) to (25.687135 22.245711 0.32108918)
  2 by 2 by 1 MPI processor grid
Created 420 atoms
  using lattice units in orthogonal box = (0.0000000 -0.0022245711 -0.32108918) to (25.687135 22.247936 0.32108918)
  create_atoms CPU = 0.000 seconds
60 atoms in group lower
60 atoms in group upper
120 atoms in group boundary
300 atoms in group flow
Setting atom values ...
  60 settings made for type
Setting atom values ...
  60 settings made for type
WARNING: Mismatch between velocity and compute groups (../velocity.cpp:200)
WARNING: Temperature for thermo pressure is not for group all (../thermo.cpp:482)
Neighbor list info ...
  update every 1 steps, delay 5 steps, check yes
  max neighbors/atom: 2000, page size: 100000
  master list distance cutoff = 11.5246
  ghost atom cutoff = 11.5246
  binsize = 5.7623, bins = 5 4 1
  2 neighbor lists, perpetual/occasional/extra = 1 1 0
  (1) pair lj/cut, perpetual
      attributes: half, newton on
      pair build: half/bin/atomonly/newton
      stencil: half/bin/2d
      bin: standard
  (2) compute rdf, occasional, copy from (1)
      attributes: half, newton on
      pair build: copy
      stencil: none
      bin: none
Setting up Verlet run ...
  Unit style    : lj
  Current step  : 0
  Time step     : 0.003
Per MPI rank memory allocation (min/avg/max) = 4.460 | 4.460 | 4.460 Mbytes
Step Temp E_pair E_mol TotEng Press Volume 
       0          1.5   -2.1664468            0   -1.0985896   -2.7179838    571.54286 
     500    1.1704222   -1.9769127            0   -1.1436835   0.38831591    566.08315 
    1000            1   -2.0191343            0   -1.3072295   0.44872442    557.19814 
    1500    1.2948171   -2.1640278            0   -1.2422413   0.30004568    539.63003 
    2000            1   -2.2259166            0   -1.5140118   0.72465412    519.12061 
    2500    1.2062707   -2.3216734            0   -1.4629235    1.2221849    504.34155 
    3000            1     -2.32239            0   -1.6104852    1.8695045    492.15673 
    3500    1.1707979   -2.3946557            0   -1.5611591    1.5204781    492.89323 
    4000            1   -2.3775829            0   -1.6656782    1.1080314     497.4409 
    4500    1.1958116   -2.4145977            0   -1.5632938   0.57623274    502.65905 
    5000            1   -2.3968809            0   -1.6849762   0.88648516    498.88018 
    5500     1.220357   -2.4411213            0   -1.5723433    1.0514297    494.55058 
    6000            1    -2.423677            0   -1.7117722    1.5261955    489.13581 
    6500    1.2132969   -2.4706284            0   -1.6068766    1.2751001    488.67739 
    7000            1   -2.3965785            0   -1.6846737    1.5370088    490.51027 
    7500    1.1322234   -2.4014042            0    -1.595369    1.1996465    495.59736 
    8000            1   -2.4003176            0   -1.6884128   0.82077579    500.36679 
    8500    1.2000514   -2.4501952            0   -1.5958729   0.72847516    497.77012 
    9000            1   -2.4446104            0   -1.7327056    1.0398244    493.31743 
    9500    1.2282958   -2.4386588            0   -1.5642292    1.5371939    488.85725 
   10000            1    -2.451903            0   -1.7399982    1.3878063    487.83543 
Loop time of 2.80452 on 4 procs for 10000 steps with 420 atoms

Performance: 924223.337 tau/day, 3565.676 timesteps/s
99.7% CPU use with 4 MPI tasks x no OpenMP threads

MPI task timing breakdown:
Section |  min time  |  avg time  |  max time  |%varavg| %total
---------------------------------------------------------------
Pair    | 1.3963     | 1.9269     | 2.453      |  37.7 | 68.71
Neigh   | 0.054272   | 0.090728   | 0.12697    |  12.0 |  3.24
Comm    | 0.13693    | 0.70965    | 1.2865     |  67.7 | 25.30
Output  | 0.0024918  | 0.0034191  | 0.0037314  |   0.9 |  0.12
Modify  | 0.045557   | 0.056657   | 0.068393   |   4.6 |  2.02
Other   |            | 0.01719    |            |       |  0.61

Nlocal:        105.000 ave         107 max         104 min
Histogram: 2 0 0 1 0 0 0 0 0 1
Nghost:        481.000 ave         483 max         478 min
Histogram: 1 0 0 0 0 0 1 0 1 1
Neighs:        13906.0 ave       17852 max       10007 min
Histogram: 2 0 0 0 0 0 0 0 0 2

Total # of neighbors = 55624
Ave neighs/atom = 132.43810
Neighbor list builds = 642
Dangerous builds = 0
Total wall time: 0:00:02
