LAMMPS (29 Sep 2021 - Update 2)
Lattice spacing in x,y,z = 1.2843567 2.2245711 1.2843567
Created orthogonal box = (0.0000000 0.0000000 -0.32108918) to (25.687135 22.245711 0.32108918)
  2 by 2 by 1 MPI processor grid
Created 420 atoms
  using lattice units in orthogonal box = (0.0000000 -0.0022245711 -0.32108918) to (25.687135 22.247936 0.32108918)
  create_atoms CPU = 0.002 seconds
60 atoms in group lower
60 atoms in group upper
120 atoms in group boundary
300 atoms in group flow
Setting atom values ...
  60 settings made for type
Setting atom values ...
  60 settings made for type
WARNING: Mismatch between velocity and compute groups (../velocity.cpp:200)
WARNING: Temperature for thermo pressure is not for group all (../thermo.cpp:482)
Neighbor list info ...
  update every 1 steps, delay 5 steps, check yes
  max neighbors/atom: 2000, page size: 100000
  master list distance cutoff = 11.5246
  ghost atom cutoff = 11.5246
  binsize = 5.7623, bins = 5 4 1
  2 neighbor lists, perpetual/occasional/extra = 1 1 0
  (1) pair lj/cut, perpetual
      attributes: half, newton on
      pair build: half/bin/atomonly/newton
      stencil: half/bin/2d
      bin: standard
  (2) compute rdf, occasional, copy from (1)
      attributes: half, newton on
      pair build: copy
      stencil: none
      bin: none
Setting up Verlet run ...
  Unit style    : lj
  Current step  : 0
  Time step     : 0.003
Per MPI rank memory allocation (min/avg/max) = 4.460 | 4.460 | 4.460 Mbytes
Step Temp E_pair E_mol TotEng Press Volume 
       0          0.5   -2.1664468            0   -1.8104944   -3.2411292    571.54286 
     500    1.0724562   -1.8854224            0   -1.1219357   0.87399927    571.54286 
    1000            1   -1.9310486            0   -1.2191438   0.59718052    571.54286 
    1500    1.0337426   -1.9564649            0   -1.2205386   0.84511122    571.54286 
    2000            1   -2.0120212            0   -1.3001164   0.73236796    571.54286 
    2500    1.2525331    -2.057843            0   -1.1661588   0.16517486    571.54286 
    3000            1   -2.0494847            0     -1.33758   0.05026507    571.54286 
    3500    1.0474445   -2.0803165            0   -1.3346357    0.3620295    571.54286 
    4000            1   -2.0330501            0   -1.3211453   0.65548665    571.54286 
    4500    1.1282925   -2.0841165            0   -1.2808797   0.20777638    571.54286 
    5000            1   -2.0371312            0   -1.3252264   0.40836976    571.54286 
    5500    1.1168114   -2.1104872            0   -1.3154238  0.023736207    571.54286 
    6000            1    -2.070083            0   -1.3581783   0.20604383    571.54286 
    6500    1.0554899   -2.0598158            0   -1.3084075   0.53442948    571.54286 
    7000            1   -2.0837843            0   -1.3718796   0.37027509    571.54286 
    7500    1.0172845    -2.093315            0   -1.3691054   0.20580464    571.54286 
    8000            1   -2.1120941            0   -1.4001893  0.046413123    571.54286 
    8500    1.1485405     -2.12343            0   -1.3057785 -0.022571675    571.54286 
    9000            1   -2.0783711            0   -1.3664663   0.20436659    571.54286 
    9500    1.1142724   -2.1180405            0   -1.3247847   0.18364952    571.54286 
   10000            1   -2.0887517            0    -1.376847    0.1308991    571.54286 
Loop time of 2.79769 on 4 procs for 10000 steps with 420 atoms

Performance: 926478.459 tau/day, 3574.377 timesteps/s
99.7% CPU use with 4 MPI tasks x no OpenMP threads

MPI task timing breakdown:
Section |  min time  |  avg time  |  max time  |%varavg| %total
---------------------------------------------------------------
Pair    | 1.1129     | 1.7681     | 2.3889     |  46.4 | 63.20
Neigh   | 0.074383   | 0.14289    | 0.21157    |  18.0 |  5.11
Comm    | 0.14275    | 0.83686    | 1.5661     |  75.5 | 29.91
Output  | 0.0026694  | 0.0035754  | 0.003881   |   0.9 |  0.13
Modify  | 0.023831   | 0.025773   | 0.028069   |   1.2 |  0.92
Other   |            | 0.02045    |            |       |  0.73

Nlocal:        105.000 ave         121 max          86 min
Histogram: 1 0 0 1 0 0 0 0 1 1
Nghost:        481.000 ave         504 max         467 min
Histogram: 2 0 0 0 1 0 0 0 0 1
Neighs:        12270.8 ave       17392 max        6763 min
Histogram: 1 1 0 0 0 0 0 0 0 2

Total # of neighbors = 49083
Ave neighs/atom = 116.86429
Neighbor list builds = 993
Dangerous builds = 0
Total wall time: 0:00:02
