LAMMPS (29 Sep 2021 - Update 2)
Lattice spacing in x,y,z = 1.2843567 2.2245711 1.2843567
Created orthogonal box = (0.0000000 0.0000000 -0.32108918) to (25.687135 22.245711 0.32108918)
  2 by 2 by 1 MPI processor grid
Created 420 atoms
  using lattice units in orthogonal box = (0.0000000 -0.0022245711 -0.32108918) to (25.687135 22.247936 0.32108918)
  create_atoms CPU = 0.000 seconds
60 atoms in group lower
60 atoms in group upper
120 atoms in group boundary
300 atoms in group flow
Setting atom values ...
  60 settings made for type
Setting atom values ...
  60 settings made for type
WARNING: Mismatch between velocity and compute groups (../velocity.cpp:200)
WARNING: Temperature for thermo pressure is not for group all (../thermo.cpp:482)
Neighbor list info ...
  update every 1 steps, delay 5 steps, check yes
  max neighbors/atom: 2000, page size: 100000
  master list distance cutoff = 11.5246
  ghost atom cutoff = 11.5246
  binsize = 5.7623, bins = 5 4 1
  2 neighbor lists, perpetual/occasional/extra = 1 1 0
  (1) pair lj/cut, perpetual
      attributes: half, newton on
      pair build: half/bin/atomonly/newton
      stencil: half/bin/2d
      bin: standard
  (2) compute rdf, occasional, copy from (1)
      attributes: half, newton on
      pair build: copy
      stencil: none
      bin: none
Setting up Verlet run ...
  Unit style    : lj
  Current step  : 0
  Time step     : 0.003
Per MPI rank memory allocation (min/avg/max) = 4.460 | 4.460 | 4.460 Mbytes
Step Temp E_pair E_mol TotEng Press Volume 
       0          2.5   -2.1664468            0  -0.38668486   -2.1948384    571.54286 
     500    1.2161449    -1.848041            0  -0.98226169    1.2086649    571.54286 
    1000            1   -1.9246564            0   -1.2127516   0.67267363    571.54286 
    1500    1.1332164   -1.9896325            0   -1.1828904   0.64850812    571.54286 
    2000            1    -1.968707            0   -1.2568022   0.61780973    571.54286 
    2500    1.1011177   -2.0007779            0    -1.216887   0.36566267    571.54286 
    3000            1    -2.003877            0   -1.2919723   0.53302524    571.54286 
    3500    1.0242763   -2.0446805            0   -1.3154933   0.13104674    571.54286 
    4000            1   -2.0592162            0   -1.3473115   0.19897758    571.54286 
    4500    1.0153019    -2.041467            0   -1.3186688   0.35201254    571.54286 
    5000            1    -2.048392            0   -1.3364873    0.3312587    571.54286 
    5500    1.1061163   -2.0877143            0   -1.3002648  0.063923036    571.54286 
    6000            1   -2.0651561            0   -1.3532514   0.31880539    571.54286 
    6500    1.0767096   -2.0766753            0   -1.3101606   0.32546548    571.54286 
    7000            1    -2.127095            0   -1.4151902  -0.14697433    571.54286 
    7500    1.0633768   -2.1077299            0   -1.3507069   0.16130809    571.54286 
    8000            1   -2.0859142            0   -1.3740094   0.32399801    571.54286 
    8500    1.0927934   -2.1124443            0   -1.3344795   0.30727656    571.54286 
    9000            1   -2.0623014            0   -1.3503966   0.58878688    571.54286 
    9500    1.1062306   -2.1170339            0    -1.329503 -0.080383812    571.54286 
   10000            1   -2.0493065            0   -1.3374018   0.42070366    571.54286 
Loop time of 2.78694 on 4 procs for 10000 steps with 420 atoms

Performance: 930052.675 tau/day, 3588.166 timesteps/s
99.8% CPU use with 4 MPI tasks x no OpenMP threads

MPI task timing breakdown:
Section |  min time  |  avg time  |  max time  |%varavg| %total
---------------------------------------------------------------
Pair    | 1.1101     | 1.7462     | 2.3762     |  47.3 | 62.65
Neigh   | 0.073811   | 0.14211    | 0.21092    |  18.0 |  5.10
Comm    | 0.14659    | 0.84946    | 1.5595     |  75.9 | 30.48
Output  | 0.0026758  | 0.0035897  | 0.0038959  |   0.9 |  0.13
Modify  | 0.022924   | 0.025025   | 0.027718   |   1.3 |  0.90
Other   |            | 0.0206     |            |       |  0.74

Nlocal:        105.000 ave         117 max          93 min
Histogram: 1 1 0 0 0 0 0 0 1 1
Nghost:        479.500 ave         490 max         466 min
Histogram: 1 0 1 0 0 0 0 0 0 2
Neighs:        12280.5 ave       16904 max        7353 min
Histogram: 2 0 0 0 0 0 0 0 0 2

Total # of neighbors = 49122
Ave neighs/atom = 116.95714
Neighbor list builds = 987
Dangerous builds = 0
Total wall time: 0:00:02
