ITEM: TIMESTEP
0
ITEM: NUMBER OF ATOMS
420
ITEM: BOX BOUNDS pp ss pp
0.0000000000000000e+00 2.5687134504920127e+01
-2.2245711031688635e-03 2.2247935602791809e+01
-3.2108918131150160e-01 3.2108918131150160e-01
ITEM: ATOMS id type xs ys zs
1 2 0 9.998e-05 0.5
2 2 0.025 0.05009 0.5
3 2 0.05 9.998e-05 0.5
4 2 0.075 0.05009 0.5
5 2 0.1 9.998e-05 0.5
6 2 0.125 0.05009 0.5
7 2 0.15 9.998e-05 0.5
8 2 0.175 0.05009 0.5
9 2 0.2 9.998e-05 0.5
10 2 0.225 0.05009 0.5
21 2 0 0.10008 0.5
22 1 0.025 0.15007 0.5
23 2 0.05 0.10008 0.5
24 1 0.075 0.15007 0.5
25 2 0.1 0.10008 0.5
26 1 0.125 0.15007 0.5
27 2 0.15 0.10008 0.5
28 1 0.175 0.15007 0.5
29 2 0.2 0.10008 0.5
30 1 0.225 0.15007 0.5
41 1 0 0.20006 0.5
42 1 0.025 0.25005 0.5
43 1 0.05 0.20006 0.5
44 1 0.075 0.25005 0.5
45 1 0.1 0.20006 0.5
46 1 0.125 0.25005 0.5
47 1 0.15 0.20006 0.5
48 1 0.175 0.25005 0.5
49 1 0.2 0.20006 0.5
50 1 0.225 0.25005 0.5
61 1 0 0.30004 0.5
62 1 0.025 0.35003 0.5
63 1 0.05 0.30004 0.5
64 1 0.075 0.35003 0.5
65 1 0.1 0.30004 0.5
66 1 0.125 0.35003 0.5
67 1 0.15 0.30004 0.5
68 1 0.175 0.35003 0.5
69 1 0.2 0.30004 0.5
70 1 0.225 0.35003 0.5
81 1 0 0.40002 0.5
82 1 0.025 0.45001 0.5
83 1 0.05 0.40002 0.5
84 1 0.075 0.45001 0.5
85 1 0.1 0.40002 0.5
86 1 0.125 0.45001 0.5
87 1 0.15 0.40002 0.5
88 1 0.175 0.45001 0.5
89 1 0.2 0.40002 0.5
90 1 0.225 0.45001 0.5
101 1 0 0.5 0.5
103 1 0.05 0.5 0.5
105 1 0.1 0.5 0.5
107 1 0.15 0.5 0.5
109 1 0.2 0.5 0.5
11 2 0.25 9.998e-05 0.5
12 2 0.275 0.05009 0.5
13 2 0.3 9.998e-05 0.5
14 2 0.325 0.05009 0.5
15 2 0.35 9.998e-05 0.5
16 2 0.375 0.05009 0.5
17 2 0.4 9.998e-05 0.5
18 2 0.425 0.05009 0.5
19 2 0.45 9.998e-05 0.5
20 2 0.475 0.05009 0.5
31 2 0.25 0.10008 0.5
32 1 0.275 0.15007 0.5
33 2 0.3 0.10008 0.5
34 1 0.325 0.15007 0.5
35 2 0.35 0.10008 0.5
36 1 0.375 0.15007 0.5
37 2 0.4 0.10008 0.5
38 1 0.425 0.15007 0.5
39 2 0.45 0.10008 0.5
40 1 0.475 0.15007 0.5
51 1 0.25 0.20006 0.5
52 1 0.275 0.25005 0.5
53 1 0.3 0.20006 0.5
54 1 0.325 0.25005 0.5
55 1 0.35 0.20006 0.5
56 1 0.375 0.25005 0.5
57 1 0.4 0.20006 0.5
58 1 0.425 0.25005 0.5
59 1 0.45 0.20006 0.5
60 1 0.475 0.25005 0.5
71 1 0.25 0.30004 0.5
72 1 0.275 0.35003 0.5
73 1 0.3 0.30004 0.5
74 1 0.325 0.35003 0.5
75 1 0.35 0.30004 0.5
76 1 0.375 0.35003 0.5
77 1 0.4 0.30004 0.5
78 1 0.425 0.35003 0.5
79 1 0.45 0.30004 0.5
80 1 0.475 0.35003 0.5
91 1 0.25 0.40002 0.5
92 1 0.275 0.45001 0.5
93 1 0.3 0.40002 0.5
94 1 0.325 0.45001 0.5
95 1 0.35 0.40002 0.5
96 1 0.375 0.45001 0.5
97 1 0.4 0.40002 0.5
98 1 0.425 0.45001 0.5
99 1 0.45 0.40002 0.5
100 1 0.475 0.45001 0.5
111 1 0.25 0.5 0.5
113 1 0.3 0.5 0.5
115 1 0.35 0.5 0.5
117 1 0.4 0.5 0.5
119 1 0.45 0.5 0.5
102 1 0.025 0.54999 0.5
104 1 0.075 0.54999 0.5
106 1 0.125 0.54999 0.5
108 1 0.175 0.54999 0.5
110 1 0.225 0.54999 0.5
205 3 0.2 0.9999 0.5
204 3 0.15 0.9999 0.5
203 3 0.1 0.9999 0.5
202 3 0.05 0.9999 0.5
201 3 0 0.9999 0.5
121 1 0 0.59998 0.5
122 1 0.025 0.64997 0.5
123 1 0.05 0.59998 0.5
124 1 0.075 0.64997 0.5
125 1 0.1 0.59998 0.5
126 1 0.125 0.64997 0.5
127 1 0.15 0.59998 0.5
128 1 0.175 0.64997 0.5
129 1 0.2 0.59998 0.5
130 1 0.225 0.64997 0.5
141 1 0 0.69996 0.5
142 1 0.025 0.74995 0.5
143 1 0.05 0.69996 0.5
144 1 0.075 0.74995 0.5
145 1 0.1 0.69996 0.5
146 1 0.125 0.74995 0.5
147 1 0.15 0.69996 0.5
148 1 0.175 0.74995 0.5
149 1 0.2 0.69996 0.5
150 1 0.225 0.74995 0.5
161 1 0 0.79994 0.5
162 1 0.025 0.84993 0.5
163 1 0.05 0.79994 0.5
164 1 0.075 0.84993 0.5
165 1 0.1 0.79994 0.5
166 1 0.125 0.84993 0.5
167 1 0.15 0.79994 0.5
168 1 0.175 0.84993 0.5
169 1 0.2 0.79994 0.5
170 1 0.225 0.84993 0.5
181 3 0 0.89992 0.5
182 3 0.025 0.94991 0.5
183 3 0.05 0.89992 0.5
184 3 0.075 0.94991 0.5
185 3 0.1 0.89992 0.5
186 3 0.125 0.94991 0.5
187 3 0.15 0.89992 0.5
188 3 0.175 0.94991 0.5
189 3 0.2 0.89992 0.5
190 3 0.225 0.94991 0.5
210 3 0.45 0.9999 0.5
209 3 0.4 0.9999 0.5
208 3 0.35 0.9999 0.5
207 3 0.3 0.9999 0.5
206 3 0.25 0.9999 0.5
112 1 0.275 0.54999 0.5
114 1 0.325 0.54999 0.5
116 1 0.375 0.54999 0.5
118 1 0.425 0.54999 0.5
120 1 0.475 0.54999 0.5
131 1 0.25 0.59998 0.5
132 1 0.275 0.64997 0.5
133 1 0.3 0.59998 0.5
134 1 0.325 0.64997 0.5
135 1 0.35 0.59998 0.5
136 1 0.375 0.64997 0.5
137 1 0.4 0.59998 0.5
138 1 0.425 0.64997 0.5
139 1 0.45 0.59998 0.5
140 1 0.475 0.64997 0.5
151 1 0.25 0.69996 0.5
152 1 0.275 0.74995 0.5
153 1 0.3 0.69996 0.5
154 1 0.325 0.74995 0.5
155 1 0.35 0.69996 0.5
156 1 0.375 0.74995 0.5
157 1 0.4 0.69996 0.5
158 1 0.425 0.74995 0.5
159 1 0.45 0.69996 0.5
160 1 0.475 0.74995 0.5
171 1 0.25 0.79994 0.5
172 1 0.275 0.84993 0.5
173 1 0.3 0.79994 0.5
174 1 0.325 0.84993 0.5
175 1 0.35 0.79994 0.5
176 1 0.375 0.84993 0.5
177 1 0.4 0.79994 0.5
178 1 0.425 0.84993 0.5
179 1 0.45 0.79994 0.5
180 1 0.475 0.84993 0.5
191 3 0.25 0.89992 0.5
192 3 0.275 0.94991 0.5
193 3 0.3 0.89992 0.5
194 3 0.325 0.94991 0.5
195 3 0.35 0.89992 0.5
196 3 0.375 0.94991 0.5
197 3 0.4 0.89992 0.5
198 3 0.425 0.94991 0.5
199 3 0.45 0.89992 0.5
200 3 0.475 0.94991 0.5
211 2 0.5 9.998e-05 0.5
212 2 0.525 0.05009 0.5
213 2 0.55 9.998e-05 0.5
214 2 0.575 0.05009 0.5
215 2 0.6 9.998e-05 0.5
216 2 0.625 0.05009 0.5
217 2 0.65 9.998e-05 0.5
218 2 0.675 0.05009 0.5
219 2 0.7 9.998e-05 0.5
220 2 0.725 0.05009 0.5
231 2 0.5 0.10008 0.5
232 1 0.525 0.15007 0.5
233 2 0.55 0.10008 0.5
234 1 0.575 0.15007 0.5
235 2 0.6 0.10008 0.5
236 1 0.625 0.15007 0.5
237 2 0.65 0.10008 0.5
238 1 0.675 0.15007 0.5
239 2 0.7 0.10008 0.5
240 1 0.725 0.15007 0.5
251 1 0.5 0.20006 0.5
252 1 0.525 0.25005 0.5
253 1 0.55 0.20006 0.5
254 1 0.575 0.25005 0.5
255 1 0.6 0.20006 0.5
256 1 0.625 0.25005 0.5
257 1 0.65 0.20006 0.5
258 1 0.675 0.25005 0.5
259 1 0.7 0.20006 0.5
260 1 0.725 0.25005 0.5
271 1 0.5 0.30004 0.5
272 1 0.525 0.35003 0.5
273 1 0.55 0.30004 0.5
274 1 0.575 0.35003 0.5
275 1 0.6 0.30004 0.5
276 1 0.625 0.35003 0.5
277 1 0.65 0.30004 0.5
278 1 0.675 0.35003 0.5
279 1 0.7 0.30004 0.5
280 1 0.725 0.35003 0.5
291 1 0.5 0.40002 0.5
292 1 0.525 0.45001 0.5
293 1 0.55 0.40002 0.5
294 1 0.575 0.45001 0.5
295 1 0.6 0.40002 0.5
296 1 0.625 0.45001 0.5
297 1 0.65 0.40002 0.5
298 1 0.675 0.45001 0.5
299 1 0.7 0.40002 0.5
300 1 0.725 0.45001 0.5
311 1 0.5 0.5 0.5
313 1 0.55 0.5 0.5
315 1 0.6 0.5 0.5
317 1 0.65 0.5 0.5
319 1 0.7 0.5 0.5
221 2 0.75 9.998e-05 0.5
222 2 0.775 0.05009 0.5
223 2 0.8 9.998e-05 0.5
224 2 0.825 0.05009 0.5
225 2 0.85 9.998e-05 0.5
226 2 0.875 0.05009 0.5
227 2 0.9 9.998e-05 0.5
228 2 0.925 0.05009 0.5
229 2 0.95 9.998e-05 0.5
230 2 0.975 0.05009 0.5
241 2 0.75 0.10008 0.5
242 1 0.775 0.15007 0.5
243 2 0.8 0.10008 0.5
244 1 0.825 0.15007 0.5
245 2 0.85 0.10008 0.5
246 1 0.875 0.15007 0.5
247 2 0.9 0.10008 0.5
248 1 0.925 0.15007 0.5
249 2 0.95 0.10008 0.5
250 1 0.975 0.15007 0.5
261 1 0.75 0.20006 0.5
262 1 0.775 0.25005 0.5
263 1 0.8 0.20006 0.5
264 1 0.825 0.25005 0.5
265 1 0.85 0.20006 0.5
266 1 0.875 0.25005 0.5
267 1 0.9 0.20006 0.5
268 1 0.925 0.25005 0.5
269 1 0.95 0.20006 0.5
270 1 0.975 0.25005 0.5
281 1 0.75 0.30004 0.5
282 1 0.775 0.35003 0.5
283 1 0.8 0.30004 0.5
284 1 0.825 0.35003 0.5
285 1 0.85 0.30004 0.5
286 1 0.875 0.35003 0.5
287 1 0.9 0.30004 0.5
288 1 0.925 0.35003 0.5
289 1 0.95 0.30004 0.5
290 1 0.975 0.35003 0.5
301 1 0.75 0.40002 0.5
302 1 0.775 0.45001 0.5
303 1 0.8 0.40002 0.5
304 1 0.825 0.45001 0.5
305 1 0.85 0.40002 0.5
306 1 0.875 0.45001 0.5
307 1 0.9 0.40002 0.5
308 1 0.925 0.45001 0.5
309 1 0.95 0.40002 0.5
310 1 0.975 0.45001 0.5
321 1 0.75 0.5 0.5
323 1 0.8 0.5 0.5
325 1 0.85 0.5 0.5
327 1 0.9 0.5 0.5
329 1 0.95 0.5 0.5
312 1 0.525 0.54999 0.5
314 1 0.575 0.54999 0.5
316 1 0.625 0.54999 0.5
318 1 0.675 0.54999 0.5
320 1 0.725 0.54999 0.5
415 3 0.7 0.9999 0.5
414 3 0.65 0.9999 0.5
413 3 0.6 0.9999 0.5
412 3 0.55 0.9999 0.5
411 3 0.5 0.9999 0.5
331 1 0.5 0.59998 0.5
332 1 0.525 0.64997 0.5
333 1 0.55 0.59998 0.5
334 1 0.575 0.64997 0.5
335 1 0.6 0.59998 0.5
336 1 0.625 0.64997 0.5
337 1 0.65 0.59998 0.5
338 1 0.675 0.64997 0.5
339 1 0.7 0.59998 0.5
340 1 0.725 0.64997 0.5
351 1 0.5 0.69996 0.5
352 1 0.525 0.74995 0.5
353 1 0.55 0.69996 0.5
354 1 0.575 0.74995 0.5
355 1 0.6 0.69996 0.5
356 1 0.625 0.74995 0.5
357 1 0.65 0.69996 0.5
358 1 0.675 0.74995 0.5
359 1 0.7 0.69996 0.5
360 1 0.725 0.74995 0.5
371 1 0.5 0.79994 0.5
372 1 0.525 0.84993 0.5
373 1 0.55 0.79994 0.5
374 1 0.575 0.84993 0.5
375 1 0.6 0.79994 0.5
376 1 0.625 0.84993 0.5
377 1 0.65 0.79994 0.5
378 1 0.675 0.84993 0.5
379 1 0.7 0.79994 0.5
380 1 0.725 0.84993 0.5
391 3 0.5 0.89992 0.5
392 3 0.525 0.94991 0.5
393 3 0.55 0.89992 0.5
394 3 0.575 0.94991 0.5
395 3 0.6 0.89992 0.5
396 3 0.625 0.94991 0.5
397 3 0.65 0.89992 0.5
398 3 0.675 0.94991 0.5
399 3 0.7 0.89992 0.5
400 3 0.725 0.94991 0.5
420 3 0.95 0.9999 0.5
419 3 0.9 0.9999 0.5
418 3 0.85 0.9999 0.5
417 3 0.8 0.9999 0.5
416 3 0.75 0.9999 0.5
322 1 0.775 0.54999 0.5
324 1 0.825 0.54999 0.5
326 1 0.875 0.54999 0.5
328 1 0.925 0.54999 0.5
330 1 0.975 0.54999 0.5
341 1 0.75 0.59998 0.5
342 1 0.775 0.64997 0.5
343 1 0.8 0.59998 0.5
344 1 0.825 0.64997 0.5
345 1 0.85 0.59998 0.5
346 1 0.875 0.64997 0.5
347 1 0.9 0.59998 0.5
348 1 0.925 0.64997 0.5
349 1 0.95 0.59998 0.5
350 1 0.975 0.64997 0.5
361 1 0.75 0.69996 0.5
362 1 0.775 0.74995 0.5
363 1 0.8 0.69996 0.5
364 1 0.825 0.74995 0.5
365 1 0.85 0.69996 0.5
366 1 0.875 0.74995 0.5
367 1 0.9 0.69996 0.5
368 1 0.925 0.74995 0.5
369 1 0.95 0.69996 0.5
370 1 0.975 0.74995 0.5
381 1 0.75 0.79994 0.5
382 1 0.775 0.84993 0.5
383 1 0.8 0.79994 0.5
384 1 0.825 0.84993 0.5
385 1 0.85 0.79994 0.5
386 1 0.875 0.84993 0.5
387 1 0.9 0.79994 0.5
388 1 0.925 0.84993 0.5
389 1 0.95 0.79994 0.5
390 1 0.975 0.84993 0.5
401 3 0.75 0.89992 0.5
402 3 0.775 0.94991 0.5
403 3 0.8 0.89992 0.5
404 3 0.825 0.94991 0.5
405 3 0.85 0.89992 0.5
406 3 0.875 0.94991 0.5
407 3 0.9 0.89992 0.5
408 3 0.925 0.94991 0.5
409 3 0.95 0.89992 0.5
410 3 0.975 0.94991 0.5
ITEM: TIMESTEP
500
ITEM: NUMBER OF ATOMS
420
ITEM: BOX BOUNDS pp ss pp
0.0000000000000000e+00 2.5687134504920127e+01
-2.2245711031688635e-03 2.2247935602791809e+01
-3.2108918131150160e-01 3.2108918131150160e-01
ITEM: ATOMS id type xs ys zs
1 2 0 9.998e-05 0.5
2 2 0.025 0.05009 0.5
3 2 0.05 9.998e-05 0.5
4 2 0.075 0.05009 0.5
5 2 0.1 9.998e-05 0.5
6 2 0.125 0.05009 0.5
7 2 0.15 9.998e-05 0.5
8 2 0.175 0.05009 0.5
9 2 0.2 9.998e-05 0.5
10 2 0.225 0.05009 0.5
21 2 0 0.10008 0.5
22 1 0.0143485 0.153388 0.5
23 2 0.05 0.10008 0.5
24 1 0.0712287 0.15035 0.5
25 2 0.1 0.10008 0.5
26 1 0.123528 0.140106 0.5
27 2 0.15 0.10008 0.5
28 1 0.161852 0.191797 0.5
29 2 0.2 0.10008 0.5
30 1 0.238152 0.152023 0.5
81 1 0.033577 0.401548 0.5
42 1 0.0411974 0.239366 0.5
43 1 0.0503082 0.190765 0.5
44 1 0.0942362 0.242891 0.5
45 1 0.10142 0.183736 0.5
46 1 0.169987 0.276974 0.5
47 1 0.139675 0.233092 0.5
48 1 0.183547 0.230536 0.5
49 1 0.208021 0.186434 0.5
50 1 0.305496 0.237462 0.5
96 1 0.389169 0.464166 0.5
62 1 0.043586 0.330298 0.5
63 1 0.0281079 0.288646 0.5
64 1 0.0867699 0.340873 0.5
65 1 0.0715313 0.290025 0.5
66 1 0.126166 0.30279 0.5
67 1 0.212122 0.278218 0.5
68 1 0.162728 0.346647 0.5
69 1 0.203265 0.32874 0.5
70 1 0.190262 0.383721 0.5
310 1 0.00878319 0.359276 0.5
82 1 0.0499009 0.448334 0.5
83 1 0.081203 0.387076 0.5
84 1 0.119987 0.427992 0.5
85 1 0.12158 0.367848 0.5
86 1 0.0925813 0.469154 0.5
87 1 0.156944 0.405274 0.5
88 1 0.133877 0.479319 0.5
89 1 0.2147 0.443463 0.5
90 1 0.227125 0.490744 0.5
291 1 0.456768 0.409378 0.5
99 1 0.460046 0.357647 0.5
97 1 0.370635 0.3917 0.5
107 1 0.177925 0.465448 0.5
100 1 0.429588 0.448779 0.5
11 2 0.25 9.998e-05 0.5
12 2 0.275 0.05009 0.5
13 2 0.3 9.998e-05 0.5
14 2 0.325 0.05009 0.5
15 2 0.35 9.998e-05 0.5
16 2 0.375 0.05009 0.5
17 2 0.4 9.998e-05 0.5
18 2 0.425 0.05009 0.5
19 2 0.45 9.998e-05 0.5
20 2 0.475 0.05009 0.5
31 2 0.25 0.10008 0.5
32 1 0.279913 0.144138 0.5
33 2 0.3 0.10008 0.5
34 1 0.309222 0.18655 0.5
35 2 0.35 0.10008 0.5
36 1 0.381533 0.146937 0.5
37 2 0.4 0.10008 0.5
38 1 0.423314 0.135534 0.5
39 2 0.45 0.10008 0.5
40 1 0.470939 0.201899 0.5
51 1 0.228036 0.229373 0.5
52 1 0.268554 0.274019 0.5
53 1 0.261816 0.196962 0.5
54 1 0.350742 0.247513 0.5
55 1 0.353631 0.192838 0.5
56 1 0.398783 0.231314 0.5
57 1 0.423104 0.183003 0.5
58 1 0.444344 0.250747 0.5
59 1 0.49523 0.239718 0.5
98 1 0.411141 0.405084 0.5
71 1 0.240516 0.308989 0.5
72 1 0.229283 0.379527 0.5
73 1 0.264124 0.348372 0.5
74 1 0.312446 0.311742 0.5
75 1 0.354391 0.291846 0.5
76 1 0.365718 0.337666 0.5
77 1 0.394692 0.285117 0.5
78 1 0.409786 0.354691 0.5
79 1 0.439616 0.319742 0.5
80 1 0.480256 0.312066 0.5
91 1 0.25416 0.416893 0.5
92 1 0.273294 0.460622 0.5
93 1 0.295995 0.386244 0.5
94 1 0.330403 0.408259 0.5
95 1 0.329266 0.352154 0.5
117 1 0.351898 0.488762 0.5
232 1 0.472311 0.148965 0.5
311 1 0.465621 0.489345 0.5
101 1 0.0110869 0.487291 0.5
119 1 0.421002 0.492946 0.5
115 1 0.310672 0.484824 0.5
292 1 0.497746 0.441921 0.5
41 1 0.00190556 0.19851 0.5
419 3 0.125 0.9999 0.5
104 1 0.0673182 0.563904 0.5
106 1 0.105018 0.563432 0.5
108 1 0.166806 0.528126 0.5
110 1 0.199899 0.583741 0.5
205 3 0.425 0.9999 0.5
204 3 0.375 0.9999 0.5
203 3 0.325 0.9999 0.5
202 3 0.275 0.9999 0.5
201 3 0.225 0.9999 0.5
109 1 0.231958 0.544866 0.5
122 1 0.0346766 0.65808 0.5
123 1 0.0319201 0.598355 0.5
124 1 0.084028 0.649917 0.5
125 1 0.0756778 0.607303 0.5
126 1 0.124891 0.696132 0.5
127 1 0.12189 0.629466 0.5
128 1 0.175967 0.627613 0.5
129 1 0.159528 0.57199 0.5
130 1 0.226797 0.619318 0.5
404 3 0.05 0.94991 0.5
142 1 0.0228042 0.762155 0.5
143 1 0.039531 0.704561 0.5
144 1 0.079028 0.767217 0.5
145 1 0.081157 0.720561 0.5
146 1 0.126957 0.766021 0.5
147 1 0.15648 0.73503 0.5
148 1 0.223245 0.715664 0.5
149 1 0.182983 0.694169 0.5
150 1 0.245246 0.778161 0.5
105 1 0.110533 0.515458 0.5
162 1 0.0331819 0.857936 0.5
163 1 0.0510705 0.804274 0.5
164 1 0.0713532 0.852981 0.5
165 1 0.164734 0.782445 0.5
166 1 0.126016 0.813077 0.5
167 1 0.201372 0.755236 0.5
168 1 0.171242 0.829102 0.5
169 1 0.204782 0.800847 0.5
170 1 0.21744 0.854153 0.5
181 3 0.225 0.89992 0.5
182 3 0.25 0.94991 0.5
183 3 0.275 0.89992 0.5
184 3 0.3 0.94991 0.5
185 3 0.325 0.89992 0.5
186 3 0.35 0.94991 0.5
187 3 0.375 0.89992 0.5
188 3 0.4 0.94991 0.5
189 3 0.425 0.89992 0.5
190 3 0.45 0.94991 0.5
103 1 0.0604317 0.500631 0.5
407 3 0.125 0.89992 0.5
406 3 0.1 0.94991 0.5
410 3 0.2 0.94991 0.5
206 3 0.475 0.9999 0.5
112 1 0.300422 0.584781 0.5
114 1 0.308241 0.541134 0.5
116 1 0.35273 0.565736 0.5
118 1 0.397254 0.543981 0.5
120 1 0.439941 0.546253 0.5
131 1 0.271159 0.639935 0.5
132 1 0.238415 0.66759 0.5
133 1 0.333989 0.609321 0.5
134 1 0.3125 0.655215 0.5
135 1 0.363784 0.643557 0.5
136 1 0.416777 0.669735 0.5
137 1 0.394764 0.596971 0.5
418 3 0.075 0.9999 0.5
139 1 0.433849 0.597046 0.5
140 1 0.47626 0.582402 0.5
151 1 0.265359 0.74125 0.5
152 1 0.295569 0.788478 0.5
153 1 0.285386 0.687239 0.5
154 1 0.309258 0.726484 0.5
155 1 0.345511 0.70804 0.5
156 1 0.352287 0.757367 0.5
157 1 0.389679 0.712089 0.5
158 1 0.461722 0.678707 0.5
159 1 0.467063 0.63135 0.5
160 1 0.466238 0.736014 0.5
171 1 0.266688 0.827813 0.5
172 1 0.319588 0.837558 0.5
173 1 0.336267 0.794186 0.5
174 1 0.362446 0.855533 0.5
175 1 0.383913 0.805695 0.5
176 1 0.426846 0.840869 0.5
177 1 0.426073 0.732799 0.5
178 1 0.485803 0.85714 0.5
179 1 0.447527 0.786797 0.5
180 1 0.498572 0.78228 0.5
191 3 0.475 0.89992 0.5
192 3 0.5 0.94991 0.5
111 1 0.258047 0.579654 0.5
409 3 0.175 0.89992 0.5
312 1 0.486753 0.528268 0.5
405 3 0.075 0.89992 0.5
408 3 0.15 0.94991 0.5
113 1 0.265279 0.517366 0.5
420 3 0.175 0.9999 0.5
417 3 0.025 0.9999 0.5
403 3 0.025 0.89992 0.5
141 1 0.00136168 0.630547 0.5
211 2 0.5 9.998e-05 0.5
212 2 0.525 0.05009 0.5
213 2 0.55 9.998e-05 0.5
214 2 0.575 0.05009 0.5
215 2 0.6 9.998e-05 0.5
216 2 0.625 0.05009 0.5
217 2 0.65 9.998e-05 0.5
218 2 0.675 0.05009 0.5
219 2 0.7 9.998e-05 0.5
220 2 0.725 0.05009 0.5
231 2 0.5 0.10008 0.5
313 1 0.516683 0.48618 0.5
233 2 0.55 0.10008 0.5
234 1 0.532089 0.137557 0.5
235 2 0.6 0.10008 0.5
236 1 0.58036 0.149721 0.5
237 2 0.65 0.10008 0.5
238 1 0.623323 0.180176 0.5
239 2 0.7 0.10008 0.5
240 1 0.72813 0.143653 0.5
251 1 0.512606 0.195932 0.5
252 1 0.542687 0.23558 0.5
253 1 0.552036 0.181516 0.5
254 1 0.606858 0.259515 0.5
255 1 0.588607 0.205005 0.5
256 1 0.642257 0.238714 0.5
257 1 0.687591 0.197307 0.5
258 1 0.728386 0.310617 0.5
259 1 0.671631 0.141908 0.5
260 1 0.688441 0.289373 0.5
271 1 0.552843 0.292333 0.5
272 1 0.516646 0.339624 0.5
273 1 0.579661 0.339643 0.5
274 1 0.594994 0.384827 0.5
275 1 0.606617 0.308303 0.5
276 1 0.634118 0.360218 0.5
277 1 0.644254 0.293805 0.5
278 1 0.676855 0.335407 0.5
279 1 0.718286 0.363654 0.5
280 1 0.755948 0.39324 0.5
329 1 0.996539 0.446675 0.5
327 1 0.921889 0.495978 0.5
293 1 0.546848 0.373456 0.5
294 1 0.56704 0.490122 0.5
295 1 0.554758 0.424388 0.5
296 1 0.631708 0.40839 0.5
297 1 0.680212 0.398045 0.5
298 1 0.651183 0.447743 0.5
299 1 0.71499 0.424656 0.5
300 1 0.698342 0.474508 0.5
323 1 0.805705 0.453534 0.5
290 1 0.992041 0.274204 0.5
315 1 0.592436 0.439531 0.5
330 1 0.944296 0.456464 0.5
61 1 0.950478 0.292291 0.5
221 2 0.75 9.998e-05 0.5
222 2 0.775 0.05009 0.5
223 2 0.8 9.998e-05 0.5
224 2 0.825 0.05009 0.5
225 2 0.85 9.998e-05 0.5
226 2 0.875 0.05009 0.5
227 2 0.9 9.998e-05 0.5
228 2 0.925 0.05009 0.5
229 2 0.95 9.998e-05 0.5
230 2 0.975 0.05009 0.5
241 2 0.75 0.10008 0.5
242 1 0.740252 0.189166 0.5
243 2 0.8 0.10008 0.5
244 1 0.770452 0.143569 0.5
245 2 0.85 0.10008 0.5
246 1 0.875292 0.137095 0.5
247 2 0.9 0.10008 0.5
248 1 0.919111 0.138628 0.5
249 2 0.95 0.10008 0.5
250 1 0.961346 0.149967 0.5
261 1 0.712692 0.241598 0.5
262 1 0.751175 0.255787 0.5
263 1 0.788228 0.195246 0.5
264 1 0.83357 0.265568 0.5
265 1 0.810191 0.145277 0.5
266 1 0.828847 0.189574 0.5
267 1 0.877637 0.188707 0.5
268 1 0.883527 0.237342 0.5
269 1 0.92671 0.187649 0.5
270 1 0.955066 0.239508 0.5
281 1 0.801443 0.293134 0.5
282 1 0.779145 0.333462 0.5
283 1 0.796714 0.240411 0.5
284 1 0.82415 0.368577 0.5
285 1 0.836617 0.314246 0.5
286 1 0.872785 0.3449 0.5
287 1 0.871821 0.287982 0.5
288 1 0.9193 0.335716 0.5
289 1 0.913646 0.2678 0.5
316 1 0.618561 0.476184 0.5
301 1 0.751823 0.43979 0.5
302 1 0.86114 0.395248 0.5
303 1 0.794005 0.403887 0.5
304 1 0.874602 0.448111 0.5
305 1 0.917281 0.385998 0.5
321 1 0.77476 0.487081 0.5
307 1 0.98631 0.399814 0.5
308 1 0.910993 0.431671 0.5
309 1 0.960138 0.348367 0.5
60 1 0.513772 0.277974 0.5
325 1 0.838586 0.476579 0.5
306 1 0.878511 0.492822 0.5
197 3 0.625 0.89992 0.5
314 1 0.540813 0.523486 0.5
195 3 0.575 0.89992 0.5
318 1 0.694602 0.539633 0.5
320 1 0.751095 0.566231 0.5
415 3 0.925 0.9999 0.5
414 3 0.875 0.9999 0.5
413 3 0.825 0.9999 0.5
412 3 0.775 0.9999 0.5
411 3 0.725 0.9999 0.5
198 3 0.65 0.94991 0.5
332 1 0.558228 0.616539 0.5
333 1 0.569851 0.568356 0.5
334 1 0.589821 0.64862 0.5
335 1 0.616862 0.530641 0.5
336 1 0.616615 0.611828 0.5
337 1 0.645193 0.574181 0.5
338 1 0.665312 0.616499 0.5
339 1 0.699756 0.590169 0.5
340 1 0.701001 0.639607 0.5
210 3 0.675 0.9999 0.5
352 1 0.520976 0.736949 0.5
353 1 0.544883 0.691456 0.5
354 1 0.602509 0.700141 0.5
355 1 0.630827 0.668031 0.5
356 1 0.645372 0.718495 0.5
357 1 0.673247 0.6761 0.5
358 1 0.639773 0.786871 0.5
359 1 0.685561 0.728125 0.5
360 1 0.695459 0.77665 0.5
371 1 0.54092 0.801632 0.5
372 1 0.534798 0.852421 0.5
373 1 0.565017 0.735945 0.5
374 1 0.58786 0.779437 0.5
375 1 0.616479 0.747183 0.5
376 1 0.602335 0.818047 0.5
377 1 0.644934 0.830785 0.5
378 1 0.679247 0.847482 0.5
379 1 0.742293 0.816034 0.5
380 1 0.791581 0.850242 0.5
391 3 0.725 0.89992 0.5
392 3 0.75 0.94991 0.5
393 3 0.775 0.89992 0.5
394 3 0.8 0.94991 0.5
395 3 0.825 0.89992 0.5
396 3 0.85 0.94991 0.5
397 3 0.875 0.89992 0.5
398 3 0.9 0.94991 0.5
399 3 0.925 0.89992 0.5
400 3 0.95 0.94991 0.5
207 3 0.525 0.9999 0.5
138 1 0.507068 0.62299 0.5
319 1 0.730224 0.509814 0.5
351 1 0.500133 0.695378 0.5
416 3 0.975 0.9999 0.5
322 1 0.78783 0.535061 0.5
324 1 0.833042 0.524017 0.5
326 1 0.87212 0.546335 0.5
328 1 0.906403 0.573731 0.5
199 3 0.675 0.89992 0.5
341 1 0.745556 0.617175 0.5
342 1 0.73776 0.672394 0.5
343 1 0.790484 0.58936 0.5
344 1 0.778804 0.653511 0.5
345 1 0.827715 0.577467 0.5
346 1 0.815247 0.630071 0.5
347 1 0.868231 0.595596 0.5
348 1 0.928115 0.61731 0.5
349 1 0.952603 0.569633 0.5
350 1 0.966772 0.653067 0.5
361 1 0.763315 0.729321 0.5
362 1 0.767166 0.783741 0.5
363 1 0.801458 0.706795 0.5
364 1 0.84942 0.657106 0.5
365 1 0.896442 0.64081 0.5
366 1 0.891191 0.694362 0.5
367 1 0.935746 0.69246 0.5
368 1 0.9231 0.73875 0.5
369 1 0.997146 0.69733 0.5
370 1 0.97288 0.741036 0.5
381 1 0.804907 0.783987 0.5
382 1 0.868633 0.829114 0.5
383 1 0.839958 0.729863 0.5
384 1 0.855417 0.778348 0.5
385 1 0.878131 0.737226 0.5
386 1 0.910608 0.852452 0.5
387 1 0.903133 0.800453 0.5
388 1 0.959789 0.824776 0.5
389 1 0.948516 0.778082 0.5
390 1 0.988632 0.857669 0.5
401 3 0.975 0.89992 0.5
402 3 1 0.94991 0.5
193 3 0.525 0.89992 0.5
121 1 0.992908 0.573868 0.5
317 1 0.656081 0.516256 0.5
209 3 0.625 0.9999 0.5
200 3 0.7 0.94991 0.5
102 1 0.974796 0.507083 0.5
161 1 0.998042 0.804311 0.5
331 1 0.520496 0.581362 0.5
196 3 0.6 0.94991 0.5
208 3 0.575 0.9999 0.5
194 3 0.55 0.94991 0.5
ITEM: TIMESTEP
1000
ITEM: NUMBER OF ATOMS
420
ITEM: BOX BOUNDS pp ss pp
0.0000000000000000e+00 2.5687134504920127e+01
-2.2245711031688635e-03 2.2247935602791809e+01
-3.2108918131150160e-01 3.2108918131150160e-01
ITEM: ATOMS id type xs ys zs
1 2 0 9.998e-05 0.5
2 2 0.025 0.05009 0.5
3 2 0.05 9.998e-05 0.5
4 2 0.075 0.05009 0.5
5 2 0.1 9.998e-05 0.5
6 2 0.125 0.05009 0.5
7 2 0.15 9.998e-05 0.5
8 2 0.175 0.05009 0.5
9 2 0.2 9.998e-05 0.5
10 2 0.225 0.05009 0.5
21 2 0 0.10008 0.5
22 1 0.0281938 0.142007 0.5
23 2 0.05 0.10008 0.5
24 1 0.0736202 0.144686 0.5
25 2 0.1 0.10008 0.5
26 1 0.168257 0.141954 0.5
27 2 0.15 0.10008 0.5
28 1 0.137442 0.189519 0.5
29 2 0.2 0.10008 0.5
30 1 0.225889 0.139058 0.5
81 1 0.0640223 0.391559 0.5
42 1 0.0273416 0.207638 0.5
43 1 0.0782688 0.192629 0.5
44 1 0.117999 0.226954 0.5
45 1 0.126929 0.145748 0.5
46 1 0.185731 0.30081 0.5
47 1 0.147158 0.270359 0.5
48 1 0.186829 0.227356 0.5
49 1 0.201459 0.181827 0.5
50 1 0.314677 0.253164 0.5
96 1 0.380442 0.440232 0.5
62 1 0.039288 0.280623 0.5
118 1 0.394036 0.493251 0.5
64 1 0.0683824 0.327468 0.5
65 1 0.077512 0.240723 0.5
66 1 0.0955103 0.289973 0.5
67 1 0.223266 0.272609 0.5
68 1 0.126959 0.327149 0.5
69 1 0.171144 0.341269 0.5
70 1 0.193929 0.376876 0.5
310 1 0.0341535 0.353347 0.5
82 1 0.0430389 0.442753 0.5
83 1 0.0850837 0.434258 0.5
84 1 0.125879 0.421933 0.5
85 1 0.100042 0.362766 0.5
86 1 0.113113 0.474631 0.5
87 1 0.142249 0.377987 0.5
101 1 0.00504333 0.478074 0.5
89 1 0.199471 0.453348 0.5
90 1 0.235303 0.484194 0.5
291 1 0.464091 0.366798 0.5
99 1 0.464591 0.318665 0.5
97 1 0.365923 0.394251 0.5
107 1 0.171358 0.414618 0.5
100 1 0.420912 0.436306 0.5
11 2 0.25 9.998e-05 0.5
12 2 0.275 0.05009 0.5
13 2 0.3 9.998e-05 0.5
14 2 0.325 0.05009 0.5
15 2 0.35 9.998e-05 0.5
16 2 0.375 0.05009 0.5
17 2 0.4 9.998e-05 0.5
18 2 0.425 0.05009 0.5
19 2 0.45 9.998e-05 0.5
20 2 0.475 0.05009 0.5
31 2 0.25 0.10008 0.5
32 1 0.285117 0.14343 0.5
33 2 0.3 0.10008 0.5
34 1 0.289261 0.200462 0.5
35 2 0.35 0.10008 0.5
36 1 0.336044 0.155353 0.5
37 2 0.4 0.10008 0.5
38 1 0.430214 0.150753 0.5
39 2 0.45 0.10008 0.5
40 1 0.454893 0.187687 0.5
51 1 0.235326 0.219035 0.5
52 1 0.275679 0.248028 0.5
53 1 0.25154 0.170796 0.5
54 1 0.360287 0.25025 0.5
55 1 0.332855 0.204618 0.5
56 1 0.369319 0.202759 0.5
57 1 0.381118 0.152497 0.5
58 1 0.410544 0.197117 0.5
59 1 0.441567 0.235782 0.5
98 1 0.422874 0.389212 0.5
71 1 0.263231 0.296226 0.5
72 1 0.232628 0.345224 0.5
73 1 0.275602 0.35364 0.5
74 1 0.303776 0.307895 0.5
75 1 0.34601 0.294052 0.5
76 1 0.365782 0.340754 0.5
77 1 0.38835 0.294194 0.5
78 1 0.412366 0.331046 0.5
79 1 0.43497 0.288509 0.5
80 1 0.472177 0.273638 0.5
91 1 0.241057 0.392929 0.5
92 1 0.25884 0.444332 0.5
93 1 0.294569 0.41576 0.5
94 1 0.33375 0.436012 0.5
95 1 0.318221 0.357555 0.5
117 1 0.357054 0.477201 0.5
232 1 0.470355 0.143967 0.5
311 1 0.46905 0.464884 0.5
292 1 0.461949 0.414304 0.5
88 1 0.15495 0.455586 0.5
115 1 0.300824 0.46438 0.5
307 1 0.0257138 0.398122 0.5
119 1 0.43679 0.49569 0.5
290 1 0.00658898 0.303989 0.5
113 1 0.277595 0.49857 0.5
419 3 0.35 0.9999 0.5
104 1 0.0630735 0.555846 0.5
106 1 0.113789 0.571211 0.5
397 3 0.1 0.89992 0.5
110 1 0.202376 0.561428 0.5
141 1 0.000823668 0.593931 0.5
103 1 0.043681 0.508537 0.5
114 1 0.324286 0.501258 0.5
202 3 0.5 0.9999 0.5
201 3 0.45 0.9999 0.5
109 1 0.24617 0.531846 0.5
122 1 0.0317321 0.630152 0.5
123 1 0.0695625 0.608972 0.5
124 1 0.119093 0.675196 0.5
125 1 0.115513 0.621387 0.5
126 1 0.155741 0.673333 0.5
127 1 0.156908 0.624366 0.5
128 1 0.158644 0.572905 0.5
129 1 0.14669 0.511759 0.5
130 1 0.242843 0.575095 0.5
404 3 0.275 0.94991 0.5
142 1 0.0493502 0.724995 0.5
143 1 0.0821708 0.694458 0.5
144 1 0.101995 0.807756 0.5
145 1 0.113608 0.726814 0.5
146 1 0.14945 0.798722 0.5
147 1 0.156375 0.72793 0.5
148 1 0.255267 0.692921 0.5
149 1 0.200852 0.662649 0.5
150 1 0.269973 0.751164 0.5
105 1 0.094374 0.52447 0.5
162 1 0.102253 0.855795 0.5
163 1 0.0572281 0.828701 0.5
164 1 0.228312 0.844746 0.5
165 1 0.199649 0.789022 0.5
166 1 0.151626 0.853013 0.5
167 1 0.213094 0.715026 0.5
168 1 0.294114 0.847061 0.5
169 1 0.247341 0.787145 0.5
170 1 0.298864 0.796133 0.5
181 3 0.45 0.89992 0.5
182 3 0.475 0.94991 0.5
183 3 0.5 0.89992 0.5
400 3 0.175 0.94991 0.5
396 3 0.075 0.94991 0.5
398 3 0.125 0.94991 0.5
390 1 0.0114277 0.809141 0.5
121 1 0.0188841 0.553825 0.5
415 3 0.15 0.9999 0.5
369 1 0.0465718 0.675968 0.5
401 3 0.2 0.89992 0.5
407 3 0.35 0.89992 0.5
406 3 0.325 0.94991 0.5
410 3 0.425 0.94991 0.5
161 1 0.0500446 0.774775 0.5
112 1 0.322519 0.553776 0.5
414 3 0.1 0.9999 0.5
116 1 0.358891 0.532527 0.5
394 3 0.025 0.94991 0.5
120 1 0.445583 0.54657 0.5
131 1 0.250023 0.631552 0.5
132 1 0.202644 0.607671 0.5
133 1 0.354167 0.583298 0.5
134 1 0.297122 0.59498 0.5
135 1 0.377948 0.633444 0.5
136 1 0.451036 0.644462 0.5
137 1 0.39529 0.577057 0.5
418 3 0.3 0.9999 0.5
139 1 0.436052 0.599106 0.5
403 3 0.25 0.89992 0.5
151 1 0.305983 0.691258 0.5
152 1 0.316796 0.743153 0.5
153 1 0.290235 0.644175 0.5
154 1 0.343237 0.672103 0.5
155 1 0.336993 0.625307 0.5
156 1 0.379284 0.718212 0.5
157 1 0.408025 0.690395 0.5
158 1 0.48476 0.670405 0.5
159 1 0.474812 0.587972 0.5
395 3 0.05 0.89992 0.5
171 1 0.371169 0.784554 0.5
172 1 0.371302 0.838085 0.5
173 1 0.412519 0.790375 0.5
174 1 0.428495 0.858706 0.5
175 1 0.421011 0.738624 0.5
176 1 0.464897 0.802476 0.5
177 1 0.450799 0.702467 0.5
178 1 0.483926 0.854388 0.5
179 1 0.465224 0.759618 0.5
108 1 0.195203 0.509351 0.5
399 3 0.15 0.89992 0.5
413 3 0.05 0.9999 0.5
111 1 0.279441 0.550693 0.5
409 3 0.4 0.89992 0.5
416 3 0.2 0.9999 0.5
405 3 0.3 0.89992 0.5
408 3 0.375 0.94991 0.5
402 3 0.225 0.94991 0.5
420 3 0.4 0.9999 0.5
417 3 0.25 0.9999 0.5
211 2 0.5 9.998e-05 0.5
212 2 0.525 0.05009 0.5
213 2 0.55 9.998e-05 0.5
214 2 0.575 0.05009 0.5
215 2 0.6 9.998e-05 0.5
216 2 0.625 0.05009 0.5
217 2 0.65 9.998e-05 0.5
218 2 0.675 0.05009 0.5
219 2 0.7 9.998e-05 0.5
220 2 0.725 0.05009 0.5
231 2 0.5 0.10008 0.5
313 1 0.512865 0.443852 0.5
233 2 0.55 0.10008 0.5
234 1 0.521855 0.14723 0.5
235 2 0.6 0.10008 0.5
236 1 0.590996 0.148023 0.5
237 2 0.65 0.10008 0.5
238 1 0.63782 0.159743 0.5
239 2 0.7 0.10008 0.5
240 1 0.722532 0.139003 0.5
329 1 0.989872 0.428941 0.5
252 1 0.551957 0.244035 0.5
253 1 0.543588 0.193852 0.5
254 1 0.618749 0.237823 0.5
255 1 0.585825 0.204326 0.5
256 1 0.65688 0.219891 0.5
257 1 0.70741 0.190762 0.5
258 1 0.753736 0.32674 0.5
259 1 0.674801 0.142435 0.5
260 1 0.695665 0.248947 0.5
271 1 0.587514 0.274505 0.5
272 1 0.505586 0.310501 0.5
273 1 0.552786 0.305846 0.5
274 1 0.526921 0.356185 0.5
275 1 0.626223 0.302348 0.5
276 1 0.587918 0.33593 0.5
277 1 0.662749 0.270374 0.5
278 1 0.714074 0.310866 0.5
279 1 0.722199 0.365684 0.5
280 1 0.741642 0.408032 0.5
102 1 0.942411 0.458312 0.5
325 1 0.827475 0.453888 0.5
293 1 0.502008 0.396856 0.5
294 1 0.587835 0.454601 0.5
295 1 0.546614 0.397471 0.5
296 1 0.632136 0.355842 0.5
297 1 0.6676 0.312712 0.5
298 1 0.659647 0.419967 0.5
299 1 0.683121 0.377346 0.5
300 1 0.700432 0.428365 0.5
323 1 0.791816 0.417011 0.5
318 1 0.716741 0.494517 0.5
315 1 0.596094 0.383541 0.5
330 1 0.948681 0.400291 0.5
61 1 0.964494 0.305649 0.5
221 2 0.75 9.998e-05 0.5
222 2 0.775 0.05009 0.5
223 2 0.8 9.998e-05 0.5
224 2 0.825 0.05009 0.5
225 2 0.85 9.998e-05 0.5
226 2 0.875 0.05009 0.5
227 2 0.9 9.998e-05 0.5
228 2 0.925 0.05009 0.5
229 2 0.95 9.998e-05 0.5
230 2 0.975 0.05009 0.5
241 2 0.75 0.10008 0.5
242 1 0.748966 0.180254 0.5
243 2 0.8 0.10008 0.5
244 1 0.77412 0.13727 0.5
245 2 0.85 0.10008 0.5
246 1 0.867241 0.145622 0.5
247 2 0.9 0.10008 0.5
248 1 0.909688 0.160966 0.5
249 2 0.95 0.10008 0.5
250 1 0.952422 0.163801 0.5
261 1 0.732471 0.227648 0.5
262 1 0.743281 0.277073 0.5
263 1 0.800876 0.175244 0.5
264 1 0.788221 0.274102 0.5
265 1 0.822923 0.13923 0.5
266 1 0.825531 0.22218 0.5
267 1 0.857187 0.190574 0.5
268 1 0.897506 0.242614 0.5
269 1 0.93637 0.212337 0.5
270 1 0.983635 0.201511 0.5
281 1 0.79336 0.319988 0.5
282 1 0.766028 0.374292 0.5
283 1 0.776867 0.216143 0.5
284 1 0.829345 0.360422 0.5
285 1 0.831892 0.295522 0.5
286 1 0.865297 0.334095 0.5
287 1 0.872448 0.284055 0.5
288 1 0.918014 0.301833 0.5
289 1 0.940002 0.262086 0.5
316 1 0.63678 0.46303 0.5
301 1 0.74344 0.451253 0.5
302 1 0.884937 0.381492 0.5
303 1 0.841128 0.408211 0.5
304 1 0.869313 0.466009 0.5
305 1 0.935364 0.34786 0.5
41 1 0.989071 0.14853 0.5
314 1 0.553206 0.471853 0.5
308 1 0.906637 0.425614 0.5
309 1 0.994324 0.367086 0.5
60 1 0.515166 0.267199 0.5
317 1 0.677943 0.470879 0.5
321 1 0.7824 0.474038 0.5
327 1 0.908259 0.484146 0.5
251 1 0.509052 0.214997 0.5
63 1 0.996633 0.257985 0.5
324 1 0.818362 0.497587 0.5
197 3 0.85 0.89992 0.5
188 3 0.625 0.94991 0.5
195 3 0.8 0.89992 0.5
180 1 0.520546 0.775 0.5
320 1 0.749869 0.565123 0.5
189 3 0.65 0.89992 0.5
209 3 0.85 0.9999 0.5
333 1 0.582826 0.510074 0.5
412 3 1 0.9999 0.5