ITEM: TIMESTEP
0
ITEM: NUMBER OF ATOMS
420
ITEM: BOX BOUNDS pp ss pp
0.0000000000000000e+00 2.5687134504920127e+01
-2.2245711031688635e-03 2.2247935602791809e+01
-3.2108918131150160e-01 3.2108918131150160e-01
ITEM: ATOMS id type xs ys zs
1 2 0 9.998e-05 0.5
3 2 0.05 9.998e-05 0.5
5 2 0.1 9.998e-05 0.5
7 2 0.15 9.998e-05 0.5
9 2 0.2 9.998e-05 0.5
11 2 0.25 9.998e-05 0.5
13 2 0.3 9.998e-05 0.5
15 2 0.35 9.998e-05 0.5
17 2 0.4 9.998e-05 0.5
19 2 0.45 9.998e-05 0.5
2 2 0.025 0.05009 0.5
4 2 0.075 0.05009 0.5
6 2 0.125 0.05009 0.5
8 2 0.175 0.05009 0.5
10 2 0.225 0.05009 0.5
12 2 0.275 0.05009 0.5
14 2 0.325 0.05009 0.5
16 2 0.375 0.05009 0.5
18 2 0.425 0.05009 0.5
20 2 0.475 0.05009 0.5
21 2 0 0.10008 0.5
23 2 0.05 0.10008 0.5
25 2 0.1 0.10008 0.5
27 2 0.15 0.10008 0.5
29 2 0.2 0.10008 0.5
31 2 0.25 0.10008 0.5
33 2 0.3 0.10008 0.5
35 2 0.35 0.10008 0.5
37 2 0.4 0.10008 0.5
39 2 0.45 0.10008 0.5
22 1 0.025 0.15007 0.5
24 1 0.075 0.15007 0.5
26 1 0.125 0.15007 0.5
28 1 0.175 0.15007 0.5
30 1 0.225 0.15007 0.5
32 1 0.275 0.15007 0.5
34 1 0.325 0.15007 0.5
36 1 0.375 0.15007 0.5
38 1 0.425 0.15007 0.5
40 1 0.475 0.15007 0.5
41 1 0 0.20006 0.5
43 1 0.05 0.20006 0.5
45 1 0.1 0.20006 0.5
47 1 0.15 0.20006 0.5
49 1 0.2 0.20006 0.5
51 1 0.25 0.20006 0.5
53 1 0.3 0.20006 0.5
55 1 0.35 0.20006 0.5
57 1 0.4 0.20006 0.5
59 1 0.45 0.20006 0.5
42 1 0.025 0.25005 0.5
44 1 0.075 0.25005 0.5
46 1 0.125 0.25005 0.5
48 1 0.175 0.25005 0.5
50 1 0.225 0.25005 0.5
52 1 0.275 0.25005 0.5
54 1 0.325 0.25005 0.5
56 1 0.375 0.25005 0.5
58 1 0.425 0.25005 0.5
60 1 0.475 0.25005 0.5
61 1 0 0.30004 0.5
63 1 0.05 0.30004 0.5
65 1 0.1 0.30004 0.5
67 1 0.15 0.30004 0.5
69 1 0.2 0.30004 0.5
71 1 0.25 0.30004 0.5
73 1 0.3 0.30004 0.5
75 1 0.35 0.30004 0.5
77 1 0.4 0.30004 0.5
79 1 0.45 0.30004 0.5
62 1 0.025 0.35003 0.5
64 1 0.075 0.35003 0.5
66 1 0.125 0.35003 0.5
68 1 0.175 0.35003 0.5
70 1 0.225 0.35003 0.5
72 1 0.275 0.35003 0.5
74 1 0.325 0.35003 0.5
76 1 0.375 0.35003 0.5
78 1 0.425 0.35003 0.5
80 1 0.475 0.35003 0.5
81 1 0 0.40002 0.5
83 1 0.05 0.40002 0.5
85 1 0.1 0.40002 0.5
87 1 0.15 0.40002 0.5
89 1 0.2 0.40002 0.5
91 1 0.25 0.40002 0.5
93 1 0.3 0.40002 0.5
95 1 0.35 0.40002 0.5
97 1 0.4 0.40002 0.5
99 1 0.45 0.40002 0.5
82 1 0.025 0.45001 0.5
84 1 0.075 0.45001 0.5
86 1 0.125 0.45001 0.5
88 1 0.175 0.45001 0.5
90 1 0.225 0.45001 0.5
92 1 0.275 0.45001 0.5
94 1 0.325 0.45001 0.5
96 1 0.375 0.45001 0.5
98 1 0.425 0.45001 0.5
100 1 0.475 0.45001 0.5
101 1 0 0.5 0.5
103 1 0.05 0.5 0.5
105 1 0.1 0.5 0.5
107 1 0.15 0.5 0.5
109 1 0.2 0.5 0.5
111 1 0.25 0.5 0.5
113 1 0.3 0.5 0.5
115 1 0.35 0.5 0.5
117 1 0.4 0.5 0.5
119 1 0.45 0.5 0.5
102 1 0.025 0.54999 0.5
104 1 0.075 0.54999 0.5
106 1 0.125 0.54999 0.5
108 1 0.175 0.54999 0.5
110 1 0.225 0.54999 0.5
112 1 0.275 0.54999 0.5
114 1 0.325 0.54999 0.5
116 1 0.375 0.54999 0.5
118 1 0.425 0.54999 0.5
120 1 0.475 0.54999 0.5
121 1 0 0.59998 0.5
123 1 0.05 0.59998 0.5
125 1 0.1 0.59998 0.5
127 1 0.15 0.59998 0.5
129 1 0.2 0.59998 0.5
131 1 0.25 0.59998 0.5
133 1 0.3 0.59998 0.5
135 1 0.35 0.59998 0.5
137 1 0.4 0.59998 0.5
139 1 0.45 0.59998 0.5
122 1 0.025 0.64997 0.5
124 1 0.075 0.64997 0.5
126 1 0.125 0.64997 0.5
128 1 0.175 0.64997 0.5
130 1 0.225 0.64997 0.5
132 1 0.275 0.64997 0.5
134 1 0.325 0.64997 0.5
136 1 0.375 0.64997 0.5
138 1 0.425 0.64997 0.5
140 1 0.475 0.64997 0.5
141 1 0 0.69996 0.5
143 1 0.05 0.69996 0.5
145 1 0.1 0.69996 0.5
147 1 0.15 0.69996 0.5
149 1 0.2 0.69996 0.5
151 1 0.25 0.69996 0.5
153 1 0.3 0.69996 0.5
155 1 0.35 0.69996 0.5
157 1 0.4 0.69996 0.5
159 1 0.45 0.69996 0.5
142 1 0.025 0.74995 0.5
144 1 0.075 0.74995 0.5
146 1 0.125 0.74995 0.5
148 1 0.175 0.74995 0.5
150 1 0.225 0.74995 0.5
152 1 0.275 0.74995 0.5
154 1 0.325 0.74995 0.5
156 1 0.375 0.74995 0.5
158 1 0.425 0.74995 0.5
160 1 0.475 0.74995 0.5
161 1 0 0.79994 0.5
163 1 0.05 0.79994 0.5
165 1 0.1 0.79994 0.5
167 1 0.15 0.79994 0.5
169 1 0.2 0.79994 0.5
171 1 0.25 0.79994 0.5
173 1 0.3 0.79994 0.5
175 1 0.35 0.79994 0.5
177 1 0.4 0.79994 0.5
179 1 0.45 0.79994 0.5
162 1 0.025 0.84993 0.5
164 1 0.075 0.84993 0.5
166 1 0.125 0.84993 0.5
168 1 0.175 0.84993 0.5
170 1 0.225 0.84993 0.5
172 1 0.275 0.84993 0.5
174 1 0.325 0.84993 0.5
176 1 0.375 0.84993 0.5
178 1 0.425 0.84993 0.5
180 1 0.475 0.84993 0.5
181 3 0 0.89992 0.5
183 3 0.05 0.89992 0.5
185 3 0.1 0.89992 0.5
187 3 0.15 0.89992 0.5
189 3 0.2 0.89992 0.5
191 3 0.25 0.89992 0.5
193 3 0.3 0.89992 0.5
195 3 0.35 0.89992 0.5
197 3 0.4 0.89992 0.5
199 3 0.45 0.89992 0.5
182 3 0.025 0.94991 0.5
184 3 0.075 0.94991 0.5
186 3 0.125 0.94991 0.5
188 3 0.175 0.94991 0.5
190 3 0.225 0.94991 0.5
192 3 0.275 0.94991 0.5
194 3 0.325 0.94991 0.5
196 3 0.375 0.94991 0.5
198 3 0.425 0.94991 0.5
200 3 0.475 0.94991 0.5
201 3 0 0.9999 0.5
202 3 0.05 0.9999 0.5
203 3 0.1 0.9999 0.5
204 3 0.15 0.9999 0.5
205 3 0.2 0.9999 0.5
206 3 0.25 0.9999 0.5
207 3 0.3 0.9999 0.5
208 3 0.35 0.9999 0.5
209 3 0.4 0.9999 0.5
210 3 0.45 0.9999 0.5
211 2 0.5 9.998e-05 0.5
213 2 0.55 9.998e-05 0.5
215 2 0.6 9.998e-05 0.5
217 2 0.65 9.998e-05 0.5
219 2 0.7 9.998e-05 0.5
221 2 0.75 9.998e-05 0.5
223 2 0.8 9.998e-05 0.5
225 2 0.85 9.998e-05 0.5
227 2 0.9 9.998e-05 0.5
229 2 0.95 9.998e-05 0.5
212 2 0.525 0.05009 0.5
214 2 0.575 0.05009 0.5
216 2 0.625 0.05009 0.5
218 2 0.675 0.05009 0.5
220 2 0.725 0.05009 0.5
222 2 0.775 0.05009 0.5
224 2 0.825 0.05009 0.5
226 2 0.875 0.05009 0.5
228 2 0.925 0.05009 0.5
230 2 0.975 0.05009 0.5
231 2 0.5 0.10008 0.5
233 2 0.55 0.10008 0.5
235 2 0.6 0.10008 0.5
237 2 0.65 0.10008 0.5
239 2 0.7 0.10008 0.5
241 2 0.75 0.10008 0.5
243 2 0.8 0.10008 0.5
245 2 0.85 0.10008 0.5
247 2 0.9 0.10008 0.5
249 2 0.95 0.10008 0.5
232 1 0.525 0.15007 0.5
234 1 0.575 0.15007 0.5
236 1 0.625 0.15007 0.5
238 1 0.675 0.15007 0.5
240 1 0.725 0.15007 0.5
242 1 0.775 0.15007 0.5
244 1 0.825 0.15007 0.5
246 1 0.875 0.15007 0.5
248 1 0.925 0.15007 0.5
250 1 0.975 0.15007 0.5
251 1 0.5 0.20006 0.5
253 1 0.55 0.20006 0.5
255 1 0.6 0.20006 0.5
257 1 0.65 0.20006 0.5
259 1 0.7 0.20006 0.5
261 1 0.75 0.20006 0.5
263 1 0.8 0.20006 0.5
265 1 0.85 0.20006 0.5
267 1 0.9 0.20006 0.5
269 1 0.95 0.20006 0.5
252 1 0.525 0.25005 0.5
254 1 0.575 0.25005 0.5
256 1 0.625 0.25005 0.5
258 1 0.675 0.25005 0.5
260 1 0.725 0.25005 0.5
262 1 0.775 0.25005 0.5
264 1 0.825 0.25005 0.5
266 1 0.875 0.25005 0.5
268 1 0.925 0.25005 0.5
270 1 0.975 0.25005 0.5
271 1 0.5 0.30004 0.5
273 1 0.55 0.30004 0.5
275 1 0.6 0.30004 0.5
277 1 0.65 0.30004 0.5
279 1 0.7 0.30004 0.5
281 1 0.75 0.30004 0.5
283 1 0.8 0.30004 0.5
285 1 0.85 0.30004 0.5
287 1 0.9 0.30004 0.5
289 1 0.95 0.30004 0.5
272 1 0.525 0.35003 0.5
274 1 0.575 0.35003 0.5
276 1 0.625 0.35003 0.5
278 1 0.675 0.35003 0.5
280 1 0.725 0.35003 0.5
282 1 0.775 0.35003 0.5
284 1 0.825 0.35003 0.5
286 1 0.875 0.35003 0.5
288 1 0.925 0.35003 0.5
290 1 0.975 0.35003 0.5
291 1 0.5 0.40002 0.5
293 1 0.55 0.40002 0.5
295 1 0.6 0.40002 0.5
297 1 0.65 0.40002 0.5
299 1 0.7 0.40002 0.5
301 1 0.75 0.40002 0.5
303 1 0.8 0.40002 0.5
305 1 0.85 0.40002 0.5
307 1 0.9 0.40002 0.5
309 1 0.95 0.40002 0.5
292 1 0.525 0.45001 0.5
294 1 0.575 0.45001 0.5
296 1 0.625 0.45001 0.5
298 1 0.675 0.45001 0.5
300 1 0.725 0.45001 0.5
302 1 0.775 0.45001 0.5
304 1 0.825 0.45001 0.5
306 1 0.875 0.45001 0.5
308 1 0.925 0.45001 0.5
310 1 0.975 0.45001 0.5
311 1 0.5 0.5 0.5
313 1 0.55 0.5 0.5
315 1 0.6 0.5 0.5
317 1 0.65 0.5 0.5
319 1 0.7 0.5 0.5
321 1 0.75 0.5 0.5
323 1 0.8 0.5 0.5
325 1 0.85 0.5 0.5
327 1 0.9 0.5 0.5
329 1 0.95 0.5 0.5
312 1 0.525 0.54999 0.5
314 1 0.575 0.54999 0.5
316 1 0.625 0.54999 0.5
318 1 0.675 0.54999 0.5
320 1 0.725 0.54999 0.5
322 1 0.775 0.54999 0.5
324 1 0.825 0.54999 0.5
326 1 0.875 0.54999 0.5
328 1 0.925 0.54999 0.5
330 1 0.975 0.54999 0.5
331 1 0.5 0.59998 0.5
333 1 0.55 0.59998 0.5
335 1 0.6 0.59998 0.5
337 1 0.65 0.59998 0.5
339 1 0.7 0.59998 0.5
341 1 0.75 0.59998 0.5
343 1 0.8 0.59998 0.5
345 1 0.85 0.59998 0.5
347 1 0.9 0.59998 0.5
349 1 0.95 0.59998 0.5
332 1 0.525 0.64997 0.5
334 1 0.575 0.64997 0.5
336 1 0.625 0.64997 0.5
338 1 0.675 0.64997 0.5
340 1 0.725 0.64997 0.5
342 1 0.775 0.64997 0.5
344 1 0.825 0.64997 0.5
346 1 0.875 0.64997 0.5
348 1 0.925 0.64997 0.5
350 1 0.975 0.64997 0.5
351 1 0.5 0.69996 0.5
353 1 0.55 0.69996 0.5
355 1 0.6 0.69996 0.5
357 1 0.65 0.69996 0.5
359 1 0.7 0.69996 0.5
361 1 0.75 0.69996 0.5
363 1 0.8 0.69996 0.5
365 1 0.85 0.69996 0.5
367 1 0.9 0.69996 0.5
369 1 0.95 0.69996 0.5
352 1 0.525 0.74995 0.5
354 1 0.575 0.74995 0.5
356 1 0.625 0.74995 0.5
358 1 0.675 0.74995 0.5
360 1 0.725 0.74995 0.5
362 1 0.775 0.74995 0.5
364 1 0.825 0.74995 0.5
366 1 0.875 0.74995 0.5
368 1 0.925 0.74995 0.5
370 1 0.975 0.74995 0.5
371 1 0.5 0.79994 0.5
373 1 0.55 0.79994 0.5
375 1 0.6 0.79994 0.5
377 1 0.65 0.79994 0.5
379 1 0.7 0.79994 0.5
381 1 0.75 0.79994 0.5
383 1 0.8 0.79994 0.5
385 1 0.85 0.79994 0.5
387 1 0.9 0.79994 0.5
389 1 0.95 0.79994 0.5
372 1 0.525 0.84993 0.5
374 1 0.575 0.84993 0.5
376 1 0.625 0.84993 0.5
378 1 0.675 0.84993 0.5
380 1 0.725 0.84993 0.5
382 1 0.775 0.84993 0.5
384 1 0.825 0.84993 0.5
386 1 0.875 0.84993 0.5
388 1 0.925 0.84993 0.5
390 1 0.975 0.84993 0.5
391 3 0.5 0.89992 0.5
393 3 0.55 0.89992 0.5
395 3 0.6 0.89992 0.5
397 3 0.65 0.89992 0.5
399 3 0.7 0.89992 0.5
401 3 0.75 0.89992 0.5
403 3 0.8 0.89992 0.5
405 3 0.85 0.89992 0.5
407 3 0.9 0.89992 0.5
409 3 0.95 0.89992 0.5
392 3 0.525 0.94991 0.5
394 3 0.575 0.94991 0.5
396 3 0.625 0.94991 0.5
398 3 0.675 0.94991 0.5
400 3 0.725 0.94991 0.5
402 3 0.775 0.94991 0.5
404 3 0.825 0.94991 0.5
406 3 0.875 0.94991 0.5
408 3 0.925 0.94991 0.5
410 3 0.975 0.94991 0.5
411 3 0.5 0.9999 0.5
412 3 0.55 0.9999 0.5
413 3 0.6 0.9999 0.5
414 3 0.65 0.9999 0.5
415 3 0.7 0.9999 0.5
416 3 0.75 0.9999 0.5
417 3 0.8 0.9999 0.5
418 3 0.85 0.9999 0.5
419 3 0.9 0.9999 0.5
420 3 0.95 0.9999 0.5
ITEM: TIMESTEP
500
ITEM: NUMBER OF ATOMS
420
ITEM: BOX BOUNDS pp ss pp
0.0000000000000000e+00 2.5687134504920127e+01
-2.2245711031688635e-03 2.3058620805284189e+01
-3.2108918131150160e-01 3.2108918131150160e-01
ITEM: ATOMS id type xs ys zs
1 2 0 9.64653e-05 0.5
3 2 0.05 9.64653e-05 0.5
5 2 0.1 9.64653e-05 0.5
7 2 0.15 9.64653e-05 0.5
9 2 0.2 9.64653e-05 0.5
11 2 0.25 9.64653e-05 0.5
13 2 0.3 9.64653e-05 0.5
15 2 0.35 9.64653e-05 0.5
17 2 0.4 9.64653e-05 0.5
19 2 0.45 9.64653e-05 0.5
2 2 0.025 0.0483291 0.5
4 2 0.075 0.0483291 0.5
6 2 0.125 0.0483291 0.5
8 2 0.175 0.0483291 0.5
10 2 0.225 0.0483291 0.5
12 2 0.275 0.0483291 0.5
14 2 0.325 0.0483291 0.5
16 2 0.375 0.0483291 0.5
18 2 0.425 0.0483291 0.5
20 2 0.475 0.0483291 0.5
21 2 0 0.0965618 0.5
23 2 0.05 0.0965618 0.5
25 2 0.1 0.0965618 0.5
27 2 0.15 0.0965618 0.5
29 2 0.2 0.0965618 0.5
31 2 0.25 0.0965618 0.5
33 2 0.3 0.0965618 0.5
35 2 0.35 0.0965618 0.5
37 2 0.4 0.0965618 0.5
39 2 0.45 0.0965618 0.5
22 1 0.0310998 0.145861 0.5
24 1 0.0777187 0.145072 0.5
26 1 0.127295 0.13517 0.5
28 1 0.157933 0.162661 0.5
30 1 0.273105 0.169522 0.5
32 1 0.311402 0.14149 0.5
34 1 0.354957 0.153805 0.5
36 1 0.390665 0.143297 0.5
38 1 0.456115 0.155088 0.5
310 1 0.00730974 0.366672 0.5
290 1 0.0127586 0.297826 0.5
43 1 0.0511132 0.200451 0.5
45 1 0.109938 0.179994 0.5
47 1 0.173504 0.20778 0.5
49 1 0.236481 0.141079 0.5
51 1 0.269068 0.231112 0.5
53 1 0.305075 0.194823 0.5
55 1 0.381353 0.193027 0.5
57 1 0.420687 0.178731 0.5
59 1 0.460799 0.212538 0.5
42 1 0.0811586 0.229323 0.5
44 1 0.134514 0.232207 0.5
46 1 0.163542 0.268732 0.5
48 1 0.220975 0.179237 0.5
50 1 0.309571 0.251572 0.5
52 1 0.294488 0.295364 0.5
54 1 0.344815 0.219579 0.5
56 1 0.403363 0.238408 0.5
58 1 0.478453 0.262311 0.5
101 1 0.033887 0.484885 0.5
81 1 0.054303 0.391337 0.5
63 1 0.0499777 0.258545 0.5
65 1 0.0854628 0.275501 0.5
67 1 0.211469 0.238862 0.5
69 1 0.212886 0.325937 0.5
71 1 0.241273 0.26991 0.5
73 1 0.254448 0.316518 0.5
75 1 0.36637 0.270067 0.5
77 1 0.440812 0.253712 0.5
79 1 0.454889 0.310326 0.5
62 1 0.0380354 0.338828 0.5
64 1 0.0813239 0.323071 0.5
66 1 0.12281 0.295948 0.5
68 1 0.162928 0.335058 0.5
70 1 0.200095 0.369003 0.5
72 1 0.288412 0.385048 0.5
74 1 0.348302 0.316927 0.5
76 1 0.410083 0.302076 0.5
78 1 0.427168 0.34281 0.5
107 1 0.221717 0.460021 0.5
115 1 0.312995 0.483021 0.5
83 1 0.0951801 0.36563 0.5
85 1 0.14432 0.374456 0.5
87 1 0.195129 0.415378 0.5
89 1 0.242482 0.390661 0.5
91 1 0.313009 0.419814 0.5
93 1 0.304026 0.340188 0.5
95 1 0.344638 0.377413 0.5
97 1 0.38103 0.351184 0.5
99 1 0.47919 0.353942 0.5
82 1 0.0469353 0.441187 0.5
84 1 0.106198 0.40626 0.5
86 1 0.116249 0.457785 0.5
88 1 0.152356 0.42097 0.5
108 1 0.184074 0.466479 0.5
92 1 0.269046 0.431792 0.5
94 1 0.364078 0.418004 0.5
96 1 0.399771 0.461072 0.5
98 1 0.40718 0.386146 0.5
100 1 0.449619 0.389263 0.5
117 1 0.358113 0.466018 0.5
311 1 0.489459 0.44803 0.5
119 1 0.447816 0.469097 0.5
103 1 0.0775374 0.476731 0.5
41 1 0.00545227 0.226468 0.5
329 1 0.0148386 0.412323 0.5
291 1 0.499871 0.402251 0.5
330 1 0.00214507 0.462711 0.5
90 1 0.244279 0.496811 0.5
109 1 0.195261 0.511024 0.5
104 1 0.0789781 0.548113 0.5
106 1 0.160756 0.53604 0.5
113 1 0.290397 0.526767 0.5
110 1 0.219596 0.584406 0.5
112 1 0.292852 0.573886 0.5
114 1 0.352077 0.518278 0.5
116 1 0.390879 0.509657 0.5
118 1 0.41735 0.539768 0.5
120 1 0.464226 0.535522 0.5
210 3 0.45 0.999904 0.5
123 1 0.0513501 0.582035 0.5
125 1 0.0931828 0.610111 0.5
127 1 0.140295 0.620258 0.5
129 1 0.179323 0.583016 0.5
131 1 0.328669 0.619868 0.5
133 1 0.340289 0.566426 0.5
135 1 0.415401 0.622177 0.5
137 1 0.37924 0.563712 0.5
139 1 0.437791 0.585333 0.5
122 1 0.0540359 0.644544 0.5
124 1 0.0927304 0.666955 0.5
126 1 0.133039 0.680319 0.5
128 1 0.18709 0.630954 0.5
130 1 0.257473 0.596934 0.5
132 1 0.282047 0.638861 0.5
134 1 0.372729 0.613435 0.5
136 1 0.461801 0.644669 0.5
111 1 0.251857 0.552057 0.5
140 1 0.487483 0.578552 0.5
209 3 0.4 0.999904 0.5
143 1 0.0781294 0.720673 0.5
145 1 0.034979 0.74861 0.5
147 1 0.178612 0.677137 0.5
149 1 0.23573 0.652417 0.5
151 1 0.266554 0.684745 0.5
153 1 0.316034 0.679226 0.5
155 1 0.356984 0.66587 0.5
157 1 0.411201 0.684688 0.5
159 1 0.453369 0.698483 0.5
141 1 0.0133467 0.614098 0.5
144 1 0.0792097 0.774639 0.5
146 1 0.124828 0.727545 0.5
148 1 0.19725 0.717829 0.5
150 1 0.253908 0.729696 0.5
152 1 0.285965 0.788977 0.5
154 1 0.295236 0.725261 0.5
156 1 0.372285 0.717761 0.5
158 1 0.452879 0.752776 0.5
161 1 0.00311487 0.810132 0.5
121 1 0.0191075 0.53432 0.5
163 1 0.0422133 0.806627 0.5
165 1 0.13233 0.779014 0.5
167 1 0.196229 0.76771 0.5
169 1 0.179876 0.818782 0.5
171 1 0.328898 0.804612 0.5
173 1 0.337055 0.760607 0.5
175 1 0.378948 0.787477 0.5
177 1 0.408839 0.742984 0.5
105 1 0.122673 0.528843 0.5
162 1 0.0297852 0.858714 0.5
164 1 0.0975231 0.824173 0.5
166 1 0.145424 0.850687 0.5
168 1 0.229141 0.850799 0.5
170 1 0.237437 0.798408 0.5
172 1 0.296026 0.833563 0.5
174 1 0.331952 0.851961 0.5
176 1 0.370481 0.863098 0.5
178 1 0.408707 0.829889 0.5
180 1 0.46871 0.831692 0.5
181 3 0 0.903438 0.5
183 3 0.05 0.903438 0.5
185 3 0.1 0.903438 0.5
187 3 0.15 0.903438 0.5
189 3 0.2 0.903438 0.5
191 3 0.25 0.903438 0.5
193 3 0.3 0.903438 0.5
195 3 0.35 0.903438 0.5
197 3 0.4 0.903438 0.5
199 3 0.45 0.903438 0.5
182 3 0.025 0.951671 0.5
184 3 0.075 0.951671 0.5
186 3 0.125 0.951671 0.5
188 3 0.175 0.951671 0.5
190 3 0.225 0.951671 0.5
192 3 0.275 0.951671 0.5
194 3 0.325 0.951671 0.5
196 3 0.375 0.951671 0.5
198 3 0.425 0.951671 0.5
200 3 0.475 0.951671 0.5
201 3 0 0.999904 0.5
202 3 0.05 0.999904 0.5
203 3 0.1 0.999904 0.5
204 3 0.15 0.999904 0.5
205 3 0.2 0.999904 0.5
206 3 0.25 0.999904 0.5
207 3 0.3 0.999904 0.5
208 3 0.35 0.999904 0.5
142 1 0.00908727 0.714557 0.5
211 2 0.5 9.64653e-05 0.5
213 2 0.55 9.64653e-05 0.5
215 2 0.6 9.64653e-05 0.5
217 2 0.65 9.64653e-05 0.5
219 2 0.7 9.64653e-05 0.5
221 2 0.75 9.64653e-05 0.5
223 2 0.8 9.64653e-05 0.5
225 2 0.85 9.64653e-05 0.5
227 2 0.9 9.64653e-05 0.5
229 2 0.95 9.64653e-05 0.5
212 2 0.525 0.0483291 0.5
214 2 0.575 0.0483291 0.5
216 2 0.625 0.0483291 0.5
218 2 0.675 0.0483291 0.5
220 2 0.725 0.0483291 0.5
222 2 0.775 0.0483291 0.5
224 2 0.825 0.0483291 0.5
226 2 0.875 0.0483291 0.5
228 2 0.925 0.0483291 0.5
230 2 0.975 0.0483291 0.5
231 2 0.5 0.0965618 0.5
233 2 0.55 0.0965618 0.5
235 2 0.6 0.0965618 0.5
237 2 0.65 0.0965618 0.5
239 2 0.7 0.0965618 0.5
241 2 0.75 0.0965618 0.5
243 2 0.8 0.0965618 0.5
245 2 0.85 0.0965618 0.5
247 2 0.9 0.0965618 0.5
249 2 0.95 0.0965618 0.5
232 1 0.551432 0.149369 0.5
234 1 0.586984 0.141001 0.5
236 1 0.627922 0.132331 0.5
238 1 0.634305 0.215547 0.5
240 1 0.704629 0.155104 0.5
242 1 0.747325 0.144146 0.5
244 1 0.792082 0.149528 0.5
246 1 0.882602 0.141464 0.5
248 1 0.932362 0.159022 0.5
250 1 0.979589 0.138023 0.5
251 1 0.503225 0.196698 0.5
253 1 0.545745 0.199532 0.5
255 1 0.585839 0.222225 0.5
257 1 0.680303 0.211815 0.5
259 1 0.662527 0.159068 0.5
261 1 0.721715 0.215545 0.5
263 1 0.820161 0.184203 0.5
265 1 0.834424 0.14441 0.5
267 1 0.896308 0.191072 0.5
269 1 0.968055 0.182257 0.5
252 1 0.571859 0.26206 0.5
254 1 0.630231 0.261046 0.5
256 1 0.685452 0.260795 0.5
258 1 0.756867 0.301491 0.5
260 1 0.734891 0.257531 0.5
262 1 0.764941 0.186516 0.5
264 1 0.830786 0.272008 0.5
266 1 0.83996 0.226129 0.5
268 1 0.889378 0.239661 0.5
270 1 0.927443 0.232994 0.5
271 1 0.596495 0.297542 0.5
273 1 0.578494 0.363577 0.5
275 1 0.654065 0.297221 0.5
277 1 0.701308 0.298213 0.5
279 1 0.717059 0.342798 0.5
281 1 0.78909 0.270466 0.5
283 1 0.800065 0.230605 0.5
285 1 0.854248 0.317712 0.5
287 1 0.872714 0.279483 0.5
289 1 0.91363 0.275478 0.5
272 1 0.557475 0.316648 0.5
274 1 0.628701 0.383844 0.5
276 1 0.617179 0.339224 0.5
278 1 0.658884 0.346687 0.5
280 1 0.760026 0.348201 0.5
282 1 0.806239 0.317695 0.5
284 1 0.852033 0.367003 0.5
286 1 0.902246 0.337864 0.5
288 1 0.938643 0.307728 0.5
40 1 0.507879 0.151478 0.5
61 1 0.976075 0.253216 0.5
293 1 0.53452 0.377656 0.5
295 1 0.576141 0.409402 0.5
297 1 0.693485 0.387441 0.5
299 1 0.750107 0.40142 0.5
301 1 0.809247 0.414829 0.5
303 1 0.792919 0.372491 0.5
305 1 0.932081 0.405011 0.5
307 1 0.939338 0.361464 0.5
309 1 0.970739 0.338485 0.5
292 1 0.538663 0.437097 0.5
294 1 0.571756 0.463227 0.5
296 1 0.667023 0.423591 0.5
298 1 0.661526 0.475592 0.5
300 1 0.699951 0.444003 0.5
302 1 0.894963 0.383112 0.5
304 1 0.871337 0.458119 0.5
80 1 0.503136 0.300535 0.5
308 1 0.970147 0.39982 0.5
313 1 0.525273 0.483474 0.5
323 1 0.85448 0.416795 0.5
327 1 0.920097 0.450535 0.5
315 1 0.622827 0.43177 0.5
321 1 0.774506 0.44829 0.5
60 1 0.525506 0.254052 0.5
325 1 0.831715 0.461106 0.5
316 1 0.62789 0.49991 0.5
319 1 0.719709 0.508311 0.5
314 1 0.549395 0.519984 0.5
138 1 0.506953 0.624873 0.5
318 1 0.719614 0.558442 0.5
320 1 0.75769 0.547275 0.5
322 1 0.798126 0.511444 0.5
324 1 0.843065 0.504923 0.5
326 1 0.911416 0.548717 0.5
328 1 0.952413 0.534277 0.5
312 1 0.508176 0.538133 0.5
331 1 0.556394 0.566037 0.5
333 1 0.593413 0.526027 0.5
335 1 0.629671 0.572351 0.5
337 1 0.710035 0.611418 0.5
339 1 0.751637 0.612969 0.5
341 1 0.795888 0.615816 0.5
343 1 0.80891 0.556703 0.5
345 1 0.83384 0.591541 0.5
347 1 0.875994 0.576296 0.5
349 1 0.962655 0.577606 0.5
332 1 0.55754 0.612313 0.5
334 1 0.603896 0.612994 0.5
336 1 0.66427 0.616973 0.5
338 1 0.684121 0.66121 0.5
340 1 0.743312 0.678103 0.5
342 1 0.783578 0.664936 0.5
344 1 0.83942 0.65311 0.5
346 1 0.878327 0.627523 0.5
348 1 0.923211 0.591787 0.5
350 1 0.960074 0.654569 0.5
420 3 0.95 0.999904 0.5
353 1 0.543754 0.669064 0.5
355 1 0.630554 0.657504 0.5
357 1 0.70731 0.701869 0.5
359 1 0.720881 0.750225 0.5
361 1 0.769554 0.72436 0.5
363 1 0.805988 0.702346 0.5
365 1 0.911295 0.686364 0.5
367 1 0.946868 0.712761 0.5
317 1 0.681237 0.531844 0.5
352 1 0.536758 0.737423 0.5
354 1 0.587135 0.664067 0.5
356 1 0.623894 0.705717 0.5
358 1 0.663466 0.738632 0.5
360 1 0.754877 0.790329 0.5
362 1 0.805648 0.74915 0.5
364 1 0.872948 0.67688 0.5
366 1 0.886438 0.735611 0.5
368 1 0.930114 0.759895 0.5
370 1 0.971348 0.770829 0.5
371 1 0.5614 0.784143 0.5
373 1 0.594139 0.740176 0.5
375 1 0.611339 0.809675 0.5
377 1 0.651453 0.780746 0.5
379 1 0.702938 0.791428 0.5
381 1 0.808517 0.796054 0.5
383 1 0.84393 0.726374 0.5
385 1 0.854589 0.809013 0.5
387 1 0.898014 0.787689 0.5
389 1 0.948946 0.819548 0.5
372 1 0.52637 0.846018 0.5
374 1 0.570014 0.830279 0.5
376 1 0.60175 0.85726 0.5
378 1 0.64369 0.835916 0.5
380 1 0.733752 0.856609 0.5
382 1 0.779448 0.843371 0.5
384 1 0.828539 0.862053 0.5
386 1 0.871762 0.855034 0.5
388 1 0.918856 0.849223 0.5
390 1 0.969162 0.864474 0.5
391 3 0.5 0.903438 0.5
393 3 0.55 0.903438 0.5
395 3 0.6 0.903438 0.5
397 3 0.65 0.903438 0.5
399 3 0.7 0.903438 0.5
401 3 0.75 0.903438 0.5
403 3 0.8 0.903438 0.5
405 3 0.85 0.903438 0.5
407 3 0.9 0.903438 0.5
409 3 0.95 0.903438 0.5
392 3 0.525 0.951671 0.5
394 3 0.575 0.951671 0.5
396 3 0.625 0.951671 0.5
398 3 0.675 0.951671 0.5
400 3 0.725 0.951671 0.5
402 3 0.775 0.951671 0.5
404 3 0.825 0.951671 0.5
406 3 0.875 0.951671 0.5
408 3 0.925 0.951671 0.5
410 3 0.975 0.951671 0.5
411 3 0.5 0.999904 0.5
412 3 0.55 0.999904 0.5
413 3 0.6 0.999904 0.5
414 3 0.65 0.999904 0.5
415 3 0.7 0.999904 0.5
416 3 0.75 0.999904 0.5
417 3 0.8 0.999904 0.5
418 3 0.85 0.999904 0.5
419 3 0.9 0.999904 0.5
351 1 0.506546 0.707387 0.5
102 1 0.980212 0.50208 0.5
306 1 0.908439 0.503646 0.5
160 1 0.502472 0.762786 0.5
179 1 0.50544 0.810348 0.5
369 1 0.998659 0.657887 0.5
ITEM: TIMESTEP
1000
ITEM: NUMBER OF ATOMS
420
ITEM: BOX BOUNDS pp ss pp
0.0000000000000000e+00 2.5687134504920127e+01
-2.2245711031688635e-03 2.3792626961673719e+01
-3.2108918131150160e-01 3.2108918131150160e-01
ITEM: ATOMS id type xs ys zs
1 2 0 9.34896e-05 0.5
3 2 0.05 9.34896e-05 0.5
5 2 0.1 9.34896e-05 0.5
7 2 0.15 9.34896e-05 0.5
9 2 0.2 9.34896e-05 0.5
11 2 0.25 9.34896e-05 0.5
13 2 0.3 9.34896e-05 0.5
15 2 0.35 9.34896e-05 0.5
17 2 0.4 9.34896e-05 0.5
19 2 0.45 9.34896e-05 0.5
2 2 0.025 0.0468383 0.5
4 2 0.075 0.0468383 0.5
6 2 0.125 0.0468383 0.5
8 2 0.175 0.0468383 0.5
10 2 0.225 0.0468383 0.5
12 2 0.275 0.0468383 0.5
14 2 0.325 0.0468383 0.5
16 2 0.375 0.0468383 0.5
18 2 0.425 0.0468383 0.5
20 2 0.475 0.0468383 0.5
21 2 0 0.0935831 0.5
23 2 0.05 0.0935831 0.5
25 2 0.1 0.0935831 0.5
27 2 0.15 0.0935831 0.5
29 2 0.2 0.0935831 0.5
31 2 0.25 0.0935831 0.5
33 2 0.3 0.0935831 0.5
35 2 0.35 0.0935831 0.5
37 2 0.4 0.0935831 0.5
39 2 0.45 0.0935831 0.5
22 1 0.0327418 0.138019 0.5
24 1 0.0863157 0.137952 0.5
26 1 0.129374 0.143218 0.5
28 1 0.216278 0.13776 0.5
30 1 0.2978 0.19194 0.5
32 1 0.30578 0.138846 0.5
34 1 0.351421 0.143048 0.5
36 1 0.393622 0.137243 0.5
38 1 0.487439 0.13139 0.5
310 1 0.078129 0.368744 0.5
290 1 0.0816761 0.255076 0.5
43 1 0.106599 0.175928 0.5
45 1 0.195314 0.180287 0.5
47 1 0.251751 0.177417 0.5
49 1 0.261891 0.136919 0.5
51 1 0.298162 0.243793 0.5
53 1 0.339302 0.188171 0.5
55 1 0.441778 0.178638 0.5
57 1 0.438583 0.13566 0.5
59 1 0.475636 0.202681 0.5
42 1 0.148558 0.206367 0.5
44 1 0.216331 0.221172 0.5
46 1 0.208852 0.273673 0.5
48 1 0.263751 0.219602 0.5
50 1 0.36639 0.234558 0.5
52 1 0.339053 0.270324 0.5
54 1 0.395831 0.20525 0.5
56 1 0.435349 0.226654 0.5
102 1 0.0328738 0.473675 0.5
305 1 0.00631927 0.420471 0.5
81 1 0.108609 0.335642 0.5
63 1 0.0395464 0.23387 0.5
65 1 0.128816 0.243781 0.5
67 1 0.252429 0.259404 0.5
69 1 0.232793 0.328686 0.5
71 1 0.28366 0.291104 0.5
73 1 0.275472 0.33981 0.5
75 1 0.380255 0.27904 0.5
77 1 0.475502 0.24677 0.5
61 1 0.0308728 0.278083 0.5
62 1 0.0896735 0.299873 0.5
64 1 0.130303 0.300343 0.5
66 1 0.16976 0.247485 0.5
68 1 0.176169 0.302139 0.5
70 1 0.255987 0.388015 0.5
72 1 0.337741 0.358612 0.5
74 1 0.377854 0.323875 0.5
76 1 0.426132 0.270113 0.5
78 1 0.464428 0.288471 0.5
107 1 0.298119 0.426942 0.5
115 1 0.338112 0.447985 0.5
83 1 0.149643 0.354805 0.5
85 1 0.222407 0.42143 0.5
87 1 0.245459 0.459448 0.5
89 1 0.306124 0.384636 0.5
91 1 0.385416 0.432916 0.5
93 1 0.314053 0.317591 0.5
95 1 0.402175 0.371512 0.5
97 1 0.436941 0.319961 0.5
99 1 0.490278 0.333681 0.5
82 1 0.126888 0.393656 0.5
84 1 0.192903 0.387141 0.5
330 1 0.0495866 0.421906 0.5
88 1 0.193496 0.451417 0.5
108 1 0.211101 0.488486 0.5
92 1 0.36348 0.389177 0.5
94 1 0.432069 0.409999 0.5
96 1 0.478167 0.406794 0.5
98 1 0.44575 0.364242 0.5
308 1 0.0163621 0.365711 0.5
117 1 0.434151 0.457974 0.5
101 1 0.0755737 0.48398 0.5
269 1 0.0244608 0.188636 0.5
103 1 0.134701 0.473135 0.5
41 1 0.0705216 0.199462 0.5
329 1 0.0952514 0.420011 0.5
90 1 0.305163 0.476315 0.5
309 1 0.052332 0.332488 0.5
369 1 0.0758133 0.695481 0.5
104 1 0.097048 0.522531 0.5
106 1 0.208 0.537306 0.5
113 1 0.340177 0.501897 0.5
110 1 0.241956 0.585001 0.5
112 1 0.334531 0.606326 0.5
142 1 0.0528377 0.750974 0.5
207 3 0.3 1.00022 0.5
118 1 0.48213 0.546357 0.5
370 1 0.00990415 0.750291 0.5
210 3 0.45 1.00022 0.5
123 1 0.085551 0.566807 0.5
125 1 0.145887 0.609842 0.5
127 1 0.181606 0.646781 0.5
129 1 0.188426 0.595938 0.5
131 1 0.395168 0.601715 0.5
133 1 0.366249 0.550609 0.5
116 1 0.448913 0.50315 0.5
137 1 0.426952 0.545074 0.5
367 1 0.025273 0.709171 0.5
122 1 0.0935436 0.61016 0.5
124 1 0.13194 0.662362 0.5
126 1 0.153242 0.704613 0.5
128 1 0.230796 0.63368 0.5
130 1 0.30076 0.558687 0.5
132 1 0.296115 0.630741 0.5
134 1 0.462963 0.621706 0.5
206 3 0.25 1.00022 0.5
111 1 0.263116 0.547173 0.5
208 3 0.35 1.00022 0.5
209 3 0.4 1.00022 0.5
143 1 0.109697 0.71935 0.5
145 1 0.116932 0.787176 0.5
147 1 0.198234 0.694066 0.5
149 1 0.263639 0.679546 0.5
151 1 0.314381 0.716885 0.5
153 1 0.331513 0.667467 0.5
155 1 0.40169 0.651824 0.5
157 1 0.458453 0.679724 0.5
86 1 0.172458 0.507553 0.5
141 1 0.0391875 0.64334 0.5
144 1 0.166482 0.798247 0.5
146 1 0.163161 0.749975 0.5
148 1 0.240468 0.725064 0.5
150 1 0.281108 0.744868 0.5
152 1 0.333392 0.785864 0.5
154 1 0.352962 0.739304 0.5
156 1 0.393034 0.729849 0.5
119 1 0.500341 0.5035 0.5
161 1 0.0421175 0.794485 0.5
121 1 0.044717 0.53071 0.5
163 1 0.0851532 0.853071 0.5
165 1 0.199327 0.768747 0.5
167 1 0.240686 0.771173 0.5
169 1 0.236689 0.829841 0.5
171 1 0.39301 0.82046 0.5
173 1 0.376363 0.775308 0.5
175 1 0.435373 0.770273 0.5
177 1 0.436608 0.720533 0.5
105 1 0.161603 0.557009 0.5
162 1 0.0349727 0.852933 0.5
164 1 0.128755 0.829803 0.5
166 1 0.193341 0.843574 0.5
168 1 0.270951 0.863826 0.5
170 1 0.28959 0.810337 0.5
172 1 0.31772 0.844 0.5
174 1 0.365725 0.863027 0.5
176 1 0.427621 0.869903 0.5
178 1 0.446114 0.823362 0.5
135 1 0.497131 0.652092 0.5
181 3 0 0.906727 0.5
183 3 0.05 0.906727 0.5
185 3 0.1 0.906727 0.5
187 3 0.15 0.906727 0.5
189 3 0.2 0.906727 0.5
191 3 0.25 0.906727 0.5
193 3 0.3 0.906727 0.5
195 3 0.35 0.906727 0.5
197 3 0.4 0.906727 0.5
199 3 0.45 0.906727 0.5
182 3 0.025 0.953471 0.5
184 3 0.075 0.953471 0.5
186 3 0.125 0.953471 0.5
188 3 0.175 0.953471 0.5
190 3 0.225 0.953471 0.5
192 3 0.275 0.953471 0.5
194 3 0.325 0.953471 0.5
196 3 0.375 0.953471 0.5
198 3 0.425 0.953471 0.5
200 3 0.475 0.953471 0.5
201 3 0 1.00022 0.5
202 3 0.05 1.00022 0.5
203 3 0.1 1.00022 0.5
204 3 0.15 1.00022 0.5
205 3 0.2 1.00022 0.5
114 1 0.394508 0.505366 0.5
349 1 0.0410229 0.580679 0.5
348 1 0.00315652 0.607941 0.5
350 1 0.00368703 0.661074 0.5
109 1 0.264486 0.503874 0.5
211 2 0.5 9.34896e-05 0.5
213 2 0.55 9.34896e-05 0.5
215 2 0.6 9.34896e-05 0.5
217 2 0.65 9.34896e-05 0.5
219 2 0.7 9.34896e-05 0.5
221 2 0.75 9.34896e-05 0.5
223 2 0.8 9.34896e-05 0.5
225 2 0.85 9.34896e-05 0.5
227 2 0.9 9.34896e-05 0.5
229 2 0.95 9.34896e-05 0.5
212 2 0.525 0.0468383 0.5
214 2 0.575 0.0468383 0.5
216 2 0.625 0.0468383 0.5
218 2 0.675 0.0468383 0.5
220 2 0.725 0.0468383 0.5
222 2 0.775 0.0468383 0.5
224 2 0.825 0.0468383 0.5
226 2 0.875 0.0468383 0.5
228 2 0.925 0.0468383 0.5
230 2 0.975 0.0468383 0.5
231 2 0.5 0.0935831 0.5
233 2 0.55 0.0935831 0.5
235 2 0.6 0.0935831 0.5
237 2 0.65 0.0935831 0.5
239 2 0.7 0.0935831 0.5
241 2 0.75 0.0935831 0.5
243 2 0.8 0.0935831 0.5
245 2 0.85 0.0935831 0.5
247 2 0.9 0.0935831 0.5
249 2 0.95 0.0935831 0.5
232 1 0.575764 0.163942 0.5
234 1 0.623795 0.163196 0.5
236 1 0.68578 0.147927 0.5
238 1 0.644896 0.218917 0.5
240 1 0.730566 0.177851 0.5
242 1 0.730279 0.134524 0.5
244 1 0.774094 0.133437 0.5
246 1 0.877091 0.132141 0.5
248 1 0.952751 0.146952 0.5
250 1 0.993279 0.156185 0.5
316 1 0.668882 0.473921 0.5
253 1 0.565141 0.222164 0.5
255 1 0.606392 0.214599 0.5
257 1 0.721265 0.270239 0.5
259 1 0.687333 0.207849 0.5
261 1 0.763684 0.227456 0.5
263 1 0.845719 0.194653 0.5
265 1 0.826866 0.135794 0.5
267 1 0.913608 0.163097 0.5
311 1 0.534546 0.480483 0.5
252 1 0.668927 0.255421 0.5
254 1 0.685563 0.297243 0.5
256 1 0.735576 0.313292 0.5
258 1 0.817981 0.316126 0.5
260 1 0.767974 0.276304 0.5
262 1 0.802116 0.185675 0.5
264 1 0.890911 0.263185 0.5
266 1 0.883175 0.220677 0.5
268 1 0.942163 0.211275 0.5
270 1 0.983332 0.218731 0.5
271 1 0.634774 0.30441 0.5
273 1 0.595179 0.39294 0.5
275 1 0.695368 0.339626 0.5
277 1 0.776948 0.329541 0.5
279 1 0.736521 0.366823 0.5
281 1 0.837498 0.266848 0.5
283 1 0.807014 0.230335 0.5
285 1 0.921214 0.303083 0.5
287 1 0.935626 0.25423 0.5
289 1 0.971547 0.2802 0.5
272 1 0.592208 0.324313 0.5
274 1 0.686421 0.385309 0.5
276 1 0.619534 0.355716 0.5
278 1 0.715115 0.417583 0.5
280 1 0.796622 0.365447 0.5
282 1 0.864526 0.301109 0.5
284 1 0.86782 0.346547 0.5
286 1 0.944801 0.34814 0.5
288 1 0.998466 0.319191 0.5
40 1 0.527562 0.13861 0.5
100 1 0.512461 0.43665 0.5
293 1 0.557723 0.357715 0.5
295 1 0.609982 0.439445 0.5
297 1 0.760787 0.429483 0.5
299 1 0.80155 0.419242 0.5
301 1 0.875671 0.392116 0.5
303 1 0.835381 0.379168 0.5
251 1 0.516053 0.202325 0.5
307 1 0.97623 0.38781 0.5
317 1 0.733151 0.497886 0.5
292 1 0.551053 0.421101 0.5
294 1 0.630555 0.488872 0.5
296 1 0.710976 0.461283 0.5
298 1 0.775609 0.477993 0.5
300 1 0.821831 0.484938 0.5
302 1 0.936009 0.39963 0.5
304 1 0.950941 0.45862 0.5
80 1 0.537704 0.317543 0.5
291 1 0.509371 0.382625 0.5
313 1 0.587676 0.479074 0.5
323 1 0.905478 0.429729 0.5
327 1 0.989558 0.467402 0.5
315 1 0.646643 0.403204 0.5
321 1 0.845152 0.426565 0.5
60 1 0.609242 0.260964 0.5
325 1 0.86452 0.466467 0.5
58 1 0.566139 0.27002 0.5
324 1 0.903559 0.496825 0.5
79 1 0.512401 0.275215 0.5