ITEM: TIMESTEP
0
ITEM: NUMBER OF ATOMS
420
ITEM: BOX BOUNDS pp ss pp
0.0000000000000000e+00 2.5687134504920127e+01
-2.2245711031688635e-03 2.2247935602791809e+01
-3.2108918131150160e-01 3.2108918131150160e-01
ITEM: ATOMS id type xs ys zs
1 2 0 9.998e-05 0.5
2 2 0.025 0.05009 0.5
3 2 0.05 9.998e-05 0.5
4 2 0.075 0.05009 0.5
5 2 0.1 9.998e-05 0.5
6 2 0.125 0.05009 0.5
7 2 0.15 9.998e-05 0.5
8 2 0.175 0.05009 0.5
9 2 0.2 9.998e-05 0.5
10 2 0.225 0.05009 0.5
21 2 0 0.10008 0.5
22 1 0.025 0.15007 0.5
23 2 0.05 0.10008 0.5
24 1 0.075 0.15007 0.5
25 2 0.1 0.10008 0.5
26 1 0.125 0.15007 0.5
27 2 0.15 0.10008 0.5
28 1 0.175 0.15007 0.5
29 2 0.2 0.10008 0.5
30 1 0.225 0.15007 0.5
41 1 0 0.20006 0.5
42 1 0.025 0.25005 0.5
43 1 0.05 0.20006 0.5
44 1 0.075 0.25005 0.5
45 1 0.1 0.20006 0.5
46 1 0.125 0.25005 0.5
47 1 0.15 0.20006 0.5
48 1 0.175 0.25005 0.5
49 1 0.2 0.20006 0.5
50 1 0.225 0.25005 0.5
61 1 0 0.30004 0.5
62 1 0.025 0.35003 0.5
63 1 0.05 0.30004 0.5
64 1 0.075 0.35003 0.5
65 1 0.1 0.30004 0.5
66 1 0.125 0.35003 0.5
67 1 0.15 0.30004 0.5
68 1 0.175 0.35003 0.5
69 1 0.2 0.30004 0.5
70 1 0.225 0.35003 0.5
81 1 0 0.40002 0.5
82 1 0.025 0.45001 0.5
83 1 0.05 0.40002 0.5
84 1 0.075 0.45001 0.5
85 1 0.1 0.40002 0.5
86 1 0.125 0.45001 0.5
87 1 0.15 0.40002 0.5
88 1 0.175 0.45001 0.5
89 1 0.2 0.40002 0.5
90 1 0.225 0.45001 0.5
101 1 0 0.5 0.5
103 1 0.05 0.5 0.5
105 1 0.1 0.5 0.5
107 1 0.15 0.5 0.5
109 1 0.2 0.5 0.5
11 2 0.25 9.998e-05 0.5
12 2 0.275 0.05009 0.5
13 2 0.3 9.998e-05 0.5
14 2 0.325 0.05009 0.5
15 2 0.35 9.998e-05 0.5
16 2 0.375 0.05009 0.5
17 2 0.4 9.998e-05 0.5
18 2 0.425 0.05009 0.5
19 2 0.45 9.998e-05 0.5
20 2 0.475 0.05009 0.5
31 2 0.25 0.10008 0.5
32 1 0.275 0.15007 0.5
33 2 0.3 0.10008 0.5
34 1 0.325 0.15007 0.5
35 2 0.35 0.10008 0.5
36 1 0.375 0.15007 0.5
37 2 0.4 0.10008 0.5
38 1 0.425 0.15007 0.5
39 2 0.45 0.10008 0.5
40 1 0.475 0.15007 0.5
51 1 0.25 0.20006 0.5
52 1 0.275 0.25005 0.5
53 1 0.3 0.20006 0.5
54 1 0.325 0.25005 0.5
55 1 0.35 0.20006 0.5
56 1 0.375 0.25005 0.5
57 1 0.4 0.20006 0.5
58 1 0.425 0.25005 0.5
59 1 0.45 0.20006 0.5
60 1 0.475 0.25005 0.5
71 1 0.25 0.30004 0.5
72 1 0.275 0.35003 0.5
73 1 0.3 0.30004 0.5
74 1 0.325 0.35003 0.5
75 1 0.35 0.30004 0.5
76 1 0.375 0.35003 0.5
77 1 0.4 0.30004 0.5
78 1 0.425 0.35003 0.5
79 1 0.45 0.30004 0.5
80 1 0.475 0.35003 0.5
91 1 0.25 0.40002 0.5
92 1 0.275 0.45001 0.5
93 1 0.3 0.40002 0.5
94 1 0.325 0.45001 0.5
95 1 0.35 0.40002 0.5
96 1 0.375 0.45001 0.5
97 1 0.4 0.40002 0.5
98 1 0.425 0.45001 0.5
99 1 0.45 0.40002 0.5
100 1 0.475 0.45001 0.5
111 1 0.25 0.5 0.5
113 1 0.3 0.5 0.5
115 1 0.35 0.5 0.5
117 1 0.4 0.5 0.5
119 1 0.45 0.5 0.5
102 1 0.025 0.54999 0.5
104 1 0.075 0.54999 0.5
106 1 0.125 0.54999 0.5
108 1 0.175 0.54999 0.5
110 1 0.225 0.54999 0.5
205 3 0.2 0.9999 0.5
204 3 0.15 0.9999 0.5
203 3 0.1 0.9999 0.5
202 3 0.05 0.9999 0.5
201 3 0 0.9999 0.5
121 1 0 0.59998 0.5
122 1 0.025 0.64997 0.5
123 1 0.05 0.59998 0.5
124 1 0.075 0.64997 0.5
125 1 0.1 0.59998 0.5
126 1 0.125 0.64997 0.5
127 1 0.15 0.59998 0.5
128 1 0.175 0.64997 0.5
129 1 0.2 0.59998 0.5
130 1 0.225 0.64997 0.5
141 1 0 0.69996 0.5
142 1 0.025 0.74995 0.5
143 1 0.05 0.69996 0.5
144 1 0.075 0.74995 0.5
145 1 0.1 0.69996 0.5
146 1 0.125 0.74995 0.5
147 1 0.15 0.69996 0.5
148 1 0.175 0.74995 0.5
149 1 0.2 0.69996 0.5
150 1 0.225 0.74995 0.5
161 1 0 0.79994 0.5
162 1 0.025 0.84993 0.5
163 1 0.05 0.79994 0.5
164 1 0.075 0.84993 0.5
165 1 0.1 0.79994 0.5
166 1 0.125 0.84993 0.5
167 1 0.15 0.79994 0.5
168 1 0.175 0.84993 0.5
169 1 0.2 0.79994 0.5
170 1 0.225 0.84993 0.5
181 3 0 0.89992 0.5
182 3 0.025 0.94991 0.5
183 3 0.05 0.89992 0.5
184 3 0.075 0.94991 0.5
185 3 0.1 0.89992 0.5
186 3 0.125 0.94991 0.5
187 3 0.15 0.89992 0.5
188 3 0.175 0.94991 0.5
189 3 0.2 0.89992 0.5
190 3 0.225 0.94991 0.5
210 3 0.45 0.9999 0.5
209 3 0.4 0.9999 0.5
208 3 0.35 0.9999 0.5
207 3 0.3 0.9999 0.5
206 3 0.25 0.9999 0.5
112 1 0.275 0.54999 0.5
114 1 0.325 0.54999 0.5
116 1 0.375 0.54999 0.5
118 1 0.425 0.54999 0.5
120 1 0.475 0.54999 0.5
131 1 0.25 0.59998 0.5
132 1 0.275 0.64997 0.5
133 1 0.3 0.59998 0.5
134 1 0.325 0.64997 0.5
135 1 0.35 0.59998 0.5
136 1 0.375 0.64997 0.5
137 1 0.4 0.59998 0.5
138 1 0.425 0.64997 0.5
139 1 0.45 0.59998 0.5
140 1 0.475 0.64997 0.5
151 1 0.25 0.69996 0.5
152 1 0.275 0.74995 0.5
153 1 0.3 0.69996 0.5
154 1 0.325 0.74995 0.5
155 1 0.35 0.69996 0.5
156 1 0.375 0.74995 0.5
157 1 0.4 0.69996 0.5
158 1 0.425 0.74995 0.5
159 1 0.45 0.69996 0.5
160 1 0.475 0.74995 0.5
171 1 0.25 0.79994 0.5
172 1 0.275 0.84993 0.5
173 1 0.3 0.79994 0.5
174 1 0.325 0.84993 0.5
175 1 0.35 0.79994 0.5
176 1 0.375 0.84993 0.5
177 1 0.4 0.79994 0.5
178 1 0.425 0.84993 0.5
179 1 0.45 0.79994 0.5
180 1 0.475 0.84993 0.5
191 3 0.25 0.89992 0.5
192 3 0.275 0.94991 0.5
193 3 0.3 0.89992 0.5
194 3 0.325 0.94991 0.5
195 3 0.35 0.89992 0.5
196 3 0.375 0.94991 0.5
197 3 0.4 0.89992 0.5
198 3 0.425 0.94991 0.5
199 3 0.45 0.89992 0.5
200 3 0.475 0.94991 0.5
211 2 0.5 9.998e-05 0.5
212 2 0.525 0.05009 0.5
213 2 0.55 9.998e-05 0.5
214 2 0.575 0.05009 0.5
215 2 0.6 9.998e-05 0.5
216 2 0.625 0.05009 0.5
217 2 0.65 9.998e-05 0.5
218 2 0.675 0.05009 0.5
219 2 0.7 9.998e-05 0.5
220 2 0.725 0.05009 0.5
231 2 0.5 0.10008 0.5
232 1 0.525 0.15007 0.5
233 2 0.55 0.10008 0.5
234 1 0.575 0.15007 0.5
235 2 0.6 0.10008 0.5
236 1 0.625 0.15007 0.5
237 2 0.65 0.10008 0.5
238 1 0.675 0.15007 0.5
239 2 0.7 0.10008 0.5
240 1 0.725 0.15007 0.5
251 1 0.5 0.20006 0.5
252 1 0.525 0.25005 0.5
253 1 0.55 0.20006 0.5
254 1 0.575 0.25005 0.5
255 1 0.6 0.20006 0.5
256 1 0.625 0.25005 0.5
257 1 0.65 0.20006 0.5
258 1 0.675 0.25005 0.5
259 1 0.7 0.20006 0.5
260 1 0.725 0.25005 0.5
271 1 0.5 0.30004 0.5
272 1 0.525 0.35003 0.5
273 1 0.55 0.30004 0.5
274 1 0.575 0.35003 0.5
275 1 0.6 0.30004 0.5
276 1 0.625 0.35003 0.5
277 1 0.65 0.30004 0.5
278 1 0.675 0.35003 0.5
279 1 0.7 0.30004 0.5
280 1 0.725 0.35003 0.5
291 1 0.5 0.40002 0.5
292 1 0.525 0.45001 0.5
293 1 0.55 0.40002 0.5
294 1 0.575 0.45001 0.5
295 1 0.6 0.40002 0.5
296 1 0.625 0.45001 0.5
297 1 0.65 0.40002 0.5
298 1 0.675 0.45001 0.5
299 1 0.7 0.40002 0.5
300 1 0.725 0.45001 0.5
311 1 0.5 0.5 0.5
313 1 0.55 0.5 0.5
315 1 0.6 0.5 0.5
317 1 0.65 0.5 0.5
319 1 0.7 0.5 0.5
221 2 0.75 9.998e-05 0.5
222 2 0.775 0.05009 0.5
223 2 0.8 9.998e-05 0.5
224 2 0.825 0.05009 0.5
225 2 0.85 9.998e-05 0.5
226 2 0.875 0.05009 0.5
227 2 0.9 9.998e-05 0.5
228 2 0.925 0.05009 0.5
229 2 0.95 9.998e-05 0.5
230 2 0.975 0.05009 0.5
241 2 0.75 0.10008 0.5
242 1 0.775 0.15007 0.5
243 2 0.8 0.10008 0.5
244 1 0.825 0.15007 0.5
245 2 0.85 0.10008 0.5
246 1 0.875 0.15007 0.5
247 2 0.9 0.10008 0.5
248 1 0.925 0.15007 0.5
249 2 0.95 0.10008 0.5
250 1 0.975 0.15007 0.5
261 1 0.75 0.20006 0.5
262 1 0.775 0.25005 0.5
263 1 0.8 0.20006 0.5
264 1 0.825 0.25005 0.5
265 1 0.85 0.20006 0.5
266 1 0.875 0.25005 0.5
267 1 0.9 0.20006 0.5
268 1 0.925 0.25005 0.5
269 1 0.95 0.20006 0.5
270 1 0.975 0.25005 0.5
281 1 0.75 0.30004 0.5
282 1 0.775 0.35003 0.5
283 1 0.8 0.30004 0.5
284 1 0.825 0.35003 0.5
285 1 0.85 0.30004 0.5
286 1 0.875 0.35003 0.5
287 1 0.9 0.30004 0.5
288 1 0.925 0.35003 0.5
289 1 0.95 0.30004 0.5
290 1 0.975 0.35003 0.5
301 1 0.75 0.40002 0.5
302 1 0.775 0.45001 0.5
303 1 0.8 0.40002 0.5
304 1 0.825 0.45001 0.5
305 1 0.85 0.40002 0.5
306 1 0.875 0.45001 0.5
307 1 0.9 0.40002 0.5
308 1 0.925 0.45001 0.5
309 1 0.95 0.40002 0.5
310 1 0.975 0.45001 0.5
321 1 0.75 0.5 0.5
323 1 0.8 0.5 0.5
325 1 0.85 0.5 0.5
327 1 0.9 0.5 0.5
329 1 0.95 0.5 0.5
312 1 0.525 0.54999 0.5
314 1 0.575 0.54999 0.5
316 1 0.625 0.54999 0.5
318 1 0.675 0.54999 0.5
320 1 0.725 0.54999 0.5
415 3 0.7 0.9999 0.5
414 3 0.65 0.9999 0.5
413 3 0.6 0.9999 0.5
412 3 0.55 0.9999 0.5
411 3 0.5 0.9999 0.5
331 1 0.5 0.59998 0.5
332 1 0.525 0.64997 0.5
333 1 0.55 0.59998 0.5
334 1 0.575 0.64997 0.5
335 1 0.6 0.59998 0.5
336 1 0.625 0.64997 0.5
337 1 0.65 0.59998 0.5
338 1 0.675 0.64997 0.5
339 1 0.7 0.59998 0.5
340 1 0.725 0.64997 0.5
351 1 0.5 0.69996 0.5
352 1 0.525 0.74995 0.5
353 1 0.55 0.69996 0.5
354 1 0.575 0.74995 0.5
355 1 0.6 0.69996 0.5
356 1 0.625 0.74995 0.5
357 1 0.65 0.69996 0.5
358 1 0.675 0.74995 0.5
359 1 0.7 0.69996 0.5
360 1 0.725 0.74995 0.5
371 1 0.5 0.79994 0.5
372 1 0.525 0.84993 0.5
373 1 0.55 0.79994 0.5
374 1 0.575 0.84993 0.5
375 1 0.6 0.79994 0.5
376 1 0.625 0.84993 0.5
377 1 0.65 0.79994 0.5
378 1 0.675 0.84993 0.5
379 1 0.7 0.79994 0.5
380 1 0.725 0.84993 0.5
391 3 0.5 0.89992 0.5
392 3 0.525 0.94991 0.5
393 3 0.55 0.89992 0.5
394 3 0.575 0.94991 0.5
395 3 0.6 0.89992 0.5
396 3 0.625 0.94991 0.5
397 3 0.65 0.89992 0.5
398 3 0.675 0.94991 0.5
399 3 0.7 0.89992 0.5
400 3 0.725 0.94991 0.5
420 3 0.95 0.9999 0.5
419 3 0.9 0.9999 0.5
418 3 0.85 0.9999 0.5
417 3 0.8 0.9999 0.5
416 3 0.75 0.9999 0.5
322 1 0.775 0.54999 0.5
324 1 0.825 0.54999 0.5
326 1 0.875 0.54999 0.5
328 1 0.925 0.54999 0.5
330 1 0.975 0.54999 0.5
341 1 0.75 0.59998 0.5
342 1 0.775 0.64997 0.5
343 1 0.8 0.59998 0.5
344 1 0.825 0.64997 0.5
345 1 0.85 0.59998 0.5
346 1 0.875 0.64997 0.5
347 1 0.9 0.59998 0.5
348 1 0.925 0.64997 0.5
349 1 0.95 0.59998 0.5
350 1 0.975 0.64997 0.5
361 1 0.75 0.69996 0.5
362 1 0.775 0.74995 0.5
363 1 0.8 0.69996 0.5
364 1 0.825 0.74995 0.5
365 1 0.85 0.69996 0.5
366 1 0.875 0.74995 0.5
367 1 0.9 0.69996 0.5
368 1 0.925 0.74995 0.5
369 1 0.95 0.69996 0.5
370 1 0.975 0.74995 0.5
381 1 0.75 0.79994 0.5
382 1 0.775 0.84993 0.5
383 1 0.8 0.79994 0.5
384 1 0.825 0.84993 0.5
385 1 0.85 0.79994 0.5
386 1 0.875 0.84993 0.5
387 1 0.9 0.79994 0.5
388 1 0.925 0.84993 0.5
389 1 0.95 0.79994 0.5
390 1 0.975 0.84993 0.5
401 3 0.75 0.89992 0.5
402 3 0.775 0.94991 0.5
403 3 0.8 0.89992 0.5
404 3 0.825 0.94991 0.5
405 3 0.85 0.89992 0.5
406 3 0.875 0.94991 0.5
407 3 0.9 0.89992 0.5
408 3 0.925 0.94991 0.5
409 3 0.95 0.89992 0.5
410 3 0.975 0.94991 0.5
ITEM: TIMESTEP
500
ITEM: NUMBER OF ATOMS
420
ITEM: BOX BOUNDS pp ss pp
0.0000000000000000e+00 2.5687134504920127e+01
-2.2245711031688635e-03 2.2534776186996204e+01
-3.2108918131150160e-01 3.2108918131150160e-01
ITEM: ATOMS id type xs ys zs
1 2 0 9.87075e-05 0.5
2 2 0.025 0.0494525 0.5
3 2 0.05 9.87075e-05 0.5
4 2 0.075 0.0494525 0.5
5 2 0.1 9.87075e-05 0.5
6 2 0.125 0.0494525 0.5
7 2 0.15 9.87075e-05 0.5
8 2 0.175 0.0494525 0.5
9 2 0.2 9.87075e-05 0.5
10 2 0.225 0.0494525 0.5
21 2 0 0.0988062 0.5
22 1 0.017934 0.140136 0.5
23 2 0.05 0.0988062 0.5
24 1 0.0735761 0.156751 0.5
25 2 0.1 0.0988062 0.5
26 1 0.1514 0.151312 0.5
27 2 0.15 0.0988062 0.5
28 1 0.169548 0.199103 0.5
29 2 0.2 0.0988062 0.5
30 1 0.269249 0.149919 0.5
311 1 0.48411 0.484496 0.5
42 1 0.0718204 0.248705 0.5
43 1 0.0514313 0.202141 0.5
44 1 0.109568 0.227822 0.5
45 1 0.122675 0.186265 0.5
46 1 0.185883 0.272295 0.5
47 1 0.148734 0.246505 0.5
48 1 0.206497 0.216989 0.5
49 1 0.22437 0.145882 0.5
50 1 0.322522 0.242527 0.5
97 1 0.38478 0.390406 0.5
62 1 0.0656383 0.333257 0.5
63 1 0.0471879 0.292571 0.5
64 1 0.104126 0.333405 0.5
65 1 0.0898792 0.288249 0.5
66 1 0.149401 0.290138 0.5
67 1 0.225528 0.267287 0.5
68 1 0.175674 0.341645 0.5
69 1 0.213541 0.326686 0.5
70 1 0.201936 0.37768 0.5
41 1 0.00246811 0.191276 0.5
82 1 0.0642032 0.441777 0.5
83 1 0.0966818 0.378986 0.5
84 1 0.136076 0.420624 0.5
85 1 0.141746 0.377462 0.5
86 1 0.110092 0.455071 0.5
87 1 0.181588 0.413905 0.5
88 1 0.155408 0.461275 0.5
89 1 0.230499 0.444152 0.5
90 1 0.244236 0.486808 0.5
98 1 0.428031 0.403016 0.5
81 1 0.0547736 0.389315 0.5
99 1 0.480183 0.348045 0.5
107 1 0.197112 0.483949 0.5
100 1 0.446284 0.448225 0.5
11 2 0.25 9.87075e-05 0.5
12 2 0.275 0.0494525 0.5
13 2 0.3 9.87075e-05 0.5
14 2 0.325 0.0494525 0.5
15 2 0.35 9.87075e-05 0.5
16 2 0.375 0.0494525 0.5
17 2 0.4 9.87075e-05 0.5
18 2 0.425 0.0494525 0.5
19 2 0.45 9.87075e-05 0.5
20 2 0.475 0.0494525 0.5
31 2 0.25 0.0988062 0.5
32 1 0.324135 0.138689 0.5
33 2 0.3 0.0988062 0.5
34 1 0.339691 0.188287 0.5
35 2 0.35 0.0988062 0.5
36 1 0.411537 0.146812 0.5
37 2 0.4 0.0988062 0.5
38 1 0.455814 0.148715 0.5
39 2 0.45 0.0988062 0.5
40 1 0.49902 0.192334 0.5
51 1 0.256321 0.235814 0.5
52 1 0.29172 0.286392 0.5
53 1 0.284761 0.195748 0.5
54 1 0.368108 0.239072 0.5
55 1 0.377536 0.172088 0.5
56 1 0.408856 0.223388 0.5
57 1 0.450094 0.201206 0.5
58 1 0.453737 0.257324 0.5
103 1 0.0794491 0.486628 0.5
291 1 0.471618 0.406026 0.5
71 1 0.249981 0.305565 0.5
72 1 0.245099 0.382149 0.5
73 1 0.287413 0.335458 0.5
74 1 0.329938 0.310011 0.5
75 1 0.373909 0.287123 0.5
76 1 0.385487 0.338209 0.5
77 1 0.412608 0.272759 0.5
78 1 0.42963 0.353692 0.5
79 1 0.456766 0.313404 0.5
80 1 0.497235 0.303855 0.5
91 1 0.271014 0.42178 0.5
92 1 0.294716 0.46145 0.5
93 1 0.315229 0.381762 0.5
94 1 0.347754 0.402208 0.5
95 1 0.346472 0.347825 0.5
96 1 0.399152 0.455296 0.5
117 1 0.371548 0.486333 0.5
101 1 0.0287504 0.490782 0.5
329 1 0.0173184 0.448695 0.5
119 1 0.42713 0.488929 0.5
115 1 0.323955 0.498845 0.5
290 1 0.0122872 0.263448 0.5
310 1 0.0278248 0.352532 0.5
161 1 0.00879178 0.816874 0.5
104 1 0.099257 0.54333 0.5
106 1 0.151432 0.573454 0.5
108 1 0.173595 0.521522 0.5
110 1 0.207246 0.569658 0.5
205 3 0.2 1.0001 0.5
204 3 0.15 1.0001 0.5
203 3 0.1 1.0001 0.5
202 3 0.05 1.0001 0.5
201 3 0 1.0001 0.5
200 3 0.475 0.950745 0.5
122 1 0.0591861 0.623957 0.5
123 1 0.0542533 0.579875 0.5
124 1 0.0954805 0.651118 0.5
125 1 0.0990413 0.600452 0.5
126 1 0.14325 0.686115 0.5
127 1 0.13827 0.633119 0.5
128 1 0.2209 0.638282 0.5
129 1 0.181035 0.606143 0.5
130 1 0.263292 0.623414 0.5
199 3 0.45 0.901391 0.5
142 1 0.0437173 0.766184 0.5
143 1 0.0304283 0.687762 0.5
144 1 0.0810697 0.789793 0.5
145 1 0.0654452 0.720301 0.5
146 1 0.108202 0.749162 0.5
147 1 0.181416 0.65735 0.5
148 1 0.201585 0.748817 0.5
149 1 0.224433 0.691514 0.5
150 1 0.244587 0.758345 0.5
141 1 0.0235596 0.642985 0.5
162 1 0.0278942 0.860091 0.5
163 1 0.0494803 0.819663 0.5
164 1 0.0767198 0.859377 0.5
165 1 0.139102 0.779171 0.5
166 1 0.118305 0.83263 0.5
167 1 0.159979 0.730451 0.5
168 1 0.183683 0.847457 0.5
169 1 0.218219 0.80269 0.5
170 1 0.235521 0.843804 0.5
181 3 0 0.901391 0.5
182 3 0.025 0.950745 0.5
183 3 0.05 0.901391 0.5
184 3 0.075 0.950745 0.5
185 3 0.1 0.901391 0.5
186 3 0.125 0.950745 0.5
187 3 0.15 0.901391 0.5
188 3 0.175 0.950745 0.5
189 3 0.2 0.901391 0.5
190 3 0.225 0.950745 0.5
210 3 0.45 1.0001 0.5
209 3 0.4 1.0001 0.5
208 3 0.35 1.0001 0.5
207 3 0.3 1.0001 0.5
206 3 0.25 1.0001 0.5
112 1 0.295079 0.571285 0.5
114 1 0.3379 0.553275 0.5
116 1 0.38258 0.533167 0.5
118 1 0.42763 0.539184 0.5
120 1 0.472395 0.542058 0.5
131 1 0.312773 0.619372 0.5
132 1 0.265678 0.673706 0.5
133 1 0.355301 0.592457 0.5
134 1 0.344673 0.644056 0.5
135 1 0.397311 0.637678 0.5
136 1 0.438042 0.652067 0.5
137 1 0.405771 0.59357 0.5
105 1 0.135365 0.522429 0.5
139 1 0.44527 0.595215 0.5
140 1 0.487638 0.606395 0.5
151 1 0.258795 0.715688 0.5
152 1 0.283035 0.75389 0.5
153 1 0.306823 0.669527 0.5
154 1 0.326028 0.708318 0.5
155 1 0.359852 0.686862 0.5
156 1 0.385445 0.746067 0.5
157 1 0.411075 0.703061 0.5
158 1 0.450603 0.731447 0.5
159 1 0.468451 0.689078 0.5
160 1 0.490518 0.731565 0.5
171 1 0.299659 0.81052 0.5
172 1 0.280101 0.859255 0.5
173 1 0.332014 0.764314 0.5
174 1 0.327384 0.855202 0.5
175 1 0.370627 0.791764 0.5
176 1 0.365996 0.847999 0.5
177 1 0.427575 0.771395 0.5
178 1 0.43838 0.828267 0.5
179 1 0.498802 0.786988 0.5
180 1 0.473795 0.84515 0.5
191 3 0.25 0.901391 0.5
192 3 0.275 0.950745 0.5
193 3 0.3 0.901391 0.5
194 3 0.325 0.950745 0.5
195 3 0.35 0.901391 0.5
196 3 0.375 0.950745 0.5
197 3 0.4 0.901391 0.5
198 3 0.425 0.950745 0.5
113 1 0.279004 0.513779 0.5
111 1 0.246067 0.56488 0.5
109 1 0.221485 0.524855 0.5
211 2 0.5 9.87075e-05 0.5
212 2 0.525 0.0494525 0.5
213 2 0.55 9.87075e-05 0.5
214 2 0.575 0.0494525 0.5
215 2 0.6 9.87075e-05 0.5
216 2 0.625 0.0494525 0.5
217 2 0.65 9.87075e-05 0.5
218 2 0.675 0.0494525 0.5
219 2 0.7 9.87075e-05 0.5
220 2 0.725 0.0494525 0.5
231 2 0.5 0.0988062 0.5
313 1 0.53675 0.481325 0.5
233 2 0.55 0.0988062 0.5
234 1 0.546194 0.148418 0.5
235 2 0.6 0.0988062 0.5
236 1 0.618929 0.137932 0.5
237 2 0.65 0.0988062 0.5
238 1 0.660425 0.208183 0.5
239 2 0.7 0.0988062 0.5
240 1 0.729827 0.14776 0.5
251 1 0.537672 0.195543 0.5
252 1 0.560032 0.234933 0.5
253 1 0.583338 0.187194 0.5
254 1 0.608736 0.229008 0.5
255 1 0.622696 0.186193 0.5
256 1 0.646583 0.253693 0.5
257 1 0.70076 0.19208 0.5
258 1 0.742904 0.300471 0.5
259 1 0.661686 0.151102 0.5
260 1 0.704909 0.284024 0.5
271 1 0.599973 0.274225 0.5
272 1 0.529605 0.339761 0.5
273 1 0.600794 0.335066 0.5
274 1 0.608313 0.382564 0.5
275 1 0.628996 0.306191 0.5
276 1 0.647871 0.349335 0.5
277 1 0.669797 0.313398 0.5
278 1 0.701632 0.346443 0.5
279 1 0.738844 0.367907 0.5
280 1 0.783248 0.38983 0.5
330 1 0.968654 0.458088 0.5
292 1 0.512887 0.435641 0.5
293 1 0.565001 0.366174 0.5
294 1 0.584389 0.481525 0.5
295 1 0.572428 0.418252 0.5
296 1 0.645413 0.400534 0.5
297 1 0.696182 0.396009 0.5
298 1 0.666421 0.444484 0.5
299 1 0.731054 0.415043 0.5
300 1 0.713549 0.466867 0.5
323 1 0.835881 0.450179 0.5
309 1 0.977982 0.347787 0.5
315 1 0.609022 0.435285 0.5
325 1 0.853541 0.487255 0.5
61 1 0.974286 0.292536 0.5
221 2 0.75 9.87075e-05 0.5
222 2 0.775 0.0494525 0.5
223 2 0.8 9.87075e-05 0.5
224 2 0.825 0.0494525 0.5
225 2 0.85 9.87075e-05 0.5
226 2 0.875 0.0494525 0.5
227 2 0.9 9.87075e-05 0.5
228 2 0.925 0.0494525 0.5
229 2 0.95 9.87075e-05 0.5
230 2 0.975 0.0494525 0.5
241 2 0.75 0.0988062 0.5
242 1 0.752189 0.190179 0.5
243 2 0.8 0.0988062 0.5
244 1 0.773922 0.137267 0.5
245 2 0.85 0.0988062 0.5
246 1 0.876349 0.13956 0.5
247 2 0.9 0.0988062 0.5
248 1 0.918544 0.149604 0.5
249 2 0.95 0.0988062 0.5
250 1 0.972867 0.134698 0.5
261 1 0.693702 0.236273 0.5
262 1 0.759217 0.252333 0.5
263 1 0.800746 0.18771 0.5
264 1 0.837428 0.253464 0.5
265 1 0.815526 0.141965 0.5
266 1 0.840419 0.188183 0.5
267 1 0.886399 0.187487 0.5
268 1 0.894137 0.235004 0.5
269 1 0.954953 0.178541 0.5
270 1 0.97351 0.243832 0.5
281 1 0.823918 0.295998 0.5
282 1 0.809741 0.340356 0.5
283 1 0.80149 0.233684 0.5
284 1 0.84982 0.37235 0.5
285 1 0.854106 0.318414 0.5
286 1 0.893804 0.338462 0.5
287 1 0.881196 0.281483 0.5
288 1 0.93532 0.32058 0.5
289 1 0.929049 0.273175 0.5
321 1 0.799234 0.473424 0.5
301 1 0.773125 0.436764 0.5
302 1 0.889656 0.39908 0.5
303 1 0.815124 0.413165 0.5
304 1 0.882113 0.446406 0.5
305 1 0.940753 0.380553 0.5
306 1 0.896531 0.49982 0.5
307 1 0.997756 0.392455 0.5
308 1 0.922396 0.424355 0.5
60 1 0.539389 0.277404 0.5
316 1 0.632327 0.478003 0.5
327 1 0.936604 0.48839 0.5
59 1 0.517161 0.236587 0.5
232 1 0.502815 0.144254 0.5
319 1 0.749774 0.511729 0.5
314 1 0.558316 0.532306 0.5
351 1 0.518642 0.686754 0.5
318 1 0.704392 0.548828 0.5
320 1 0.766897 0.561433 0.5
415 3 0.7 1.0001 0.5
414 3 0.65 1.0001 0.5
413 3 0.6 1.0001 0.5
412 3 0.55 1.0001 0.5
411 3 0.5 1.0001 0.5
331 1 0.520124 0.569334 0.5
332 1 0.544316 0.610201 0.5
333 1 0.581888 0.572291 0.5
334 1 0.596121 0.623159 0.5
335 1 0.647234 0.551077 0.5
336 1 0.637916 0.619491 0.5
337 1 0.677414 0.584652 0.5
338 1 0.683077 0.647201 0.5
339 1 0.730155 0.585691 0.5
340 1 0.720011 0.630804 0.5
410 3 0.975 0.950745 0.5
352 1 0.528674 0.757345 0.5
353 1 0.565905 0.658211 0.5
354 1 0.600244 0.730349 0.5
355 1 0.646654 0.698731 0.5
356 1 0.642373 0.753558 0.5
357 1 0.715526 0.718989 0.5
358 1 0.68857 0.7677 0.5
359 1 0.75026 0.739371 0.5
360 1 0.728311 0.779815 0.5
371 1 0.542305 0.800554 0.5
372 1 0.535021 0.848779 0.5
373 1 0.56897 0.763581 0.5
374 1 0.581906 0.830847 0.5
375 1 0.616635 0.804033 0.5
376 1 0.618615 0.849472 0.5
377 1 0.657503 0.799328 0.5
378 1 0.673278 0.853939 0.5
379 1 0.698634 0.816265 0.5
380 1 0.725965 0.851927 0.5
391 3 0.5 0.901391 0.5
392 3 0.525 0.950745 0.5
393 3 0.55 0.901391 0.5
394 3 0.575 0.950745 0.5
395 3 0.6 0.901391 0.5
396 3 0.625 0.950745 0.5
397 3 0.65 0.901391 0.5
398 3 0.675 0.950745 0.5
399 3 0.7 0.901391 0.5
400 3 0.725 0.950745 0.5
420 3 0.95 1.0001 0.5
419 3 0.9 1.0001 0.5
418 3 0.85 1.0001 0.5
417 3 0.8 1.0001 0.5
416 3 0.75 1.0001 0.5
322 1 0.802995 0.538579 0.5
324 1 0.850411 0.54011 0.5
326 1 0.880549 0.571921 0.5
328 1 0.921001 0.561483 0.5
317 1 0.672916 0.519411 0.5
341 1 0.774317 0.64548 0.5
342 1 0.757155 0.689996 0.5
343 1 0.793517 0.608279 0.5
344 1 0.836003 0.65468 0.5
345 1 0.829785 0.581563 0.5
346 1 0.868967 0.614595 0.5
347 1 0.909343 0.606949 0.5
348 1 0.93845 0.643652 0.5
349 1 0.951283 0.59465 0.5
350 1 0.98364 0.646597 0.5
361 1 0.780338 0.785802 0.5
362 1 0.823513 0.754513 0.5
363 1 0.798827 0.686604 0.5
364 1 0.852821 0.721213 0.5
365 1 0.898789 0.657809 0.5
366 1 0.892039 0.706517 0.5
367 1 0.93708 0.688567 0.5
368 1 0.946706 0.746016 0.5
369 1 0.984138 0.70738 0.5
370 1 0.984992 0.76787 0.5
381 1 0.822007 0.81883 0.5
382 1 0.764382 0.842322 0.5
383 1 0.86393 0.791666 0.5
384 1 0.829935 0.861584 0.5
385 1 0.904078 0.759154 0.5
386 1 0.87673 0.856199 0.5
387 1 0.900785 0.806717 0.5
388 1 0.922663 0.859407 0.5
389 1 0.946356 0.807379 0.5
390 1 0.980363 0.858834 0.5
401 3 0.75 0.901391 0.5
402 3 0.775 0.950745 0.5
403 3 0.8 0.901391 0.5
404 3 0.825 0.950745 0.5
405 3 0.85 0.901391 0.5
406 3 0.875 0.950745 0.5
407 3 0.9 0.901391 0.5
408 3 0.925 0.950745 0.5
409 3 0.95 0.901391 0.5
102 1 0.992463 0.535946 0.5
312 1 0.509479 0.523273 0.5
121 1 0.994768 0.583412 0.5
138 1 0.501932 0.646071 0.5
ITEM: TIMESTEP
1000
ITEM: NUMBER OF ATOMS
420
ITEM: BOX BOUNDS pp ss pp
0.0000000000000000e+00 2.5687134504920127e+01
-2.2245711031688635e-03 2.2444453917739153e+01
-3.2108918131150160e-01 3.2108918131150160e-01
ITEM: ATOMS id type xs ys zs
1 2 0 9.91047e-05 0.5
2 2 0.025 0.0496514 0.5
3 2 0.05 9.91047e-05 0.5
4 2 0.075 0.0496514 0.5
5 2 0.1 9.91047e-05 0.5
6 2 0.125 0.0496514 0.5
7 2 0.15 9.91047e-05 0.5
8 2 0.175 0.0496514 0.5
9 2 0.2 9.91047e-05 0.5
10 2 0.225 0.0496514 0.5
21 2 0 0.0992038 0.5
22 1 0.0145425 0.154512 0.5
23 2 0.05 0.0992038 0.5
24 1 0.0749687 0.14928 0.5
25 2 0.1 0.0992038 0.5
26 1 0.144039 0.147309 0.5
27 2 0.15 0.0992038 0.5
28 1 0.194575 0.159091 0.5
29 2 0.2 0.0992038 0.5
30 1 0.293088 0.146839 0.5
329 1 0.046435 0.447869 0.5
42 1 0.0769088 0.221307 0.5
43 1 0.0463676 0.190758 0.5
44 1 0.118338 0.217949 0.5
45 1 0.109155 0.17243 0.5
46 1 0.245926 0.231364 0.5
47 1 0.164971 0.199587 0.5
48 1 0.289422 0.208546 0.5
49 1 0.24672 0.156087 0.5
50 1 0.368593 0.269085 0.5
97 1 0.440937 0.411925 0.5
62 1 0.100931 0.315729 0.5
63 1 0.104284 0.265934 0.5
64 1 0.182078 0.289724 0.5
65 1 0.14545 0.250669 0.5
66 1 0.221407 0.291635 0.5
67 1 0.278534 0.260467 0.5
68 1 0.192613 0.341763 0.5
69 1 0.248571 0.329821 0.5
70 1 0.230056 0.384165 0.5
310 1 0.06432 0.285021 0.5
82 1 0.0889116 0.45261 0.5
83 1 0.151244 0.348124 0.5
84 1 0.152468 0.427047 0.5
85 1 0.18336 0.38961 0.5
86 1 0.139946 0.481631 0.5
87 1 0.238346 0.464239 0.5
88 1 0.188581 0.451484 0.5
89 1 0.264049 0.417321 0.5
90 1 0.303646 0.474285 0.5
98 1 0.487198 0.412433 0.5
81 1 0.116269 0.404731 0.5
309 1 0.0376155 0.339704 0.5
41 1 0.00601283 0.20275 0.5
96 1 0.463752 0.457726 0.5
11 2 0.25 9.91047e-05 0.5
12 2 0.275 0.0496514 0.5
13 2 0.3 9.91047e-05 0.5
14 2 0.325 0.0496514 0.5
15 2 0.35 9.91047e-05 0.5
16 2 0.375 0.0496514 0.5
17 2 0.4 9.91047e-05 0.5
18 2 0.425 0.0496514 0.5
19 2 0.45 9.91047e-05 0.5
20 2 0.475 0.0496514 0.5
31 2 0.25 0.0992038 0.5
32 1 0.355118 0.163074 0.5
33 2 0.3 0.0992038 0.5
34 1 0.377836 0.215598 0.5
35 2 0.35 0.0992038 0.5
36 1 0.449732 0.168312 0.5
37 2 0.4 0.0992038 0.5
38 1 0.486254 0.148902 0.5
39 2 0.45 0.0992038 0.5
307 1 0.0832387 0.364325 0.5
51 1 0.330405 0.246957 0.5
52 1 0.339826 0.312998 0.5
53 1 0.330544 0.200819 0.5
54 1 0.413753 0.240192 0.5
55 1 0.399284 0.140691 0.5
56 1 0.408761 0.182866 0.5
57 1 0.476943 0.204927 0.5
330 1 0.0613869 0.407841 0.5
308 1 0.00805625 0.456963 0.5
61 1 0.0167721 0.280649 0.5
71 1 0.292742 0.314999 0.5
72 1 0.309547 0.365848 0.5
73 1 0.353229 0.358585 0.5
74 1 0.391091 0.32125 0.5
75 1 0.421052 0.285534 0.5
76 1 0.453848 0.314943 0.5
77 1 0.463997 0.246719 0.5
78 1 0.460653 0.370321 0.5
79 1 0.492193 0.278799 0.5
290 1 0.0409479 0.239791 0.5
91 1 0.315548 0.415316 0.5
92 1 0.347018 0.459506 0.5
93 1 0.357064 0.412334 0.5
94 1 0.414448 0.460605 0.5
95 1 0.393868 0.389226 0.5
305 1 0.00856204 0.385735 0.5
115 1 0.381967 0.494458 0.5
161 1 0.0262828 0.818456 0.5
104 1 0.149495 0.581707 0.5
106 1 0.190736 0.608575 0.5
108 1 0.195395 0.510697 0.5
110 1 0.25257 0.553454 0.5
205 3 0.2 0.999302 0.5
204 3 0.15 0.999302 0.5
203 3 0.1 0.999302 0.5
202 3 0.05 0.999302 0.5
201 3 0 0.999302 0.5
200 3 0.475 0.94975 0.5
122 1 0.0953101 0.671036 0.5
123 1 0.0984301 0.621673 0.5
124 1 0.144369 0.691526 0.5
125 1 0.154193 0.641199 0.5
126 1 0.182853 0.675959 0.5
127 1 0.219054 0.646502 0.5
128 1 0.260113 0.639429 0.5
129 1 0.235082 0.597268 0.5
130 1 0.303336 0.626737 0.5
199 3 0.45 0.900198 0.5
142 1 0.117989 0.790236 0.5
143 1 0.0574271 0.690136 0.5
144 1 0.165338 0.809046 0.5
145 1 0.111743 0.726593 0.5
146 1 0.14915 0.756141 0.5
147 1 0.238413 0.685496 0.5
148 1 0.240682 0.785038 0.5
149 1 0.268481 0.73292 0.5
150 1 0.280567 0.772078 0.5
141 1 0.0549455 0.62602 0.5
162 1 0.0223321 0.863151 0.5
163 1 0.080974 0.815834 0.5
164 1 0.077895 0.862535 0.5
165 1 0.206349 0.817427 0.5
166 1 0.134219 0.834756 0.5
167 1 0.223576 0.736027 0.5
168 1 0.181418 0.852624 0.5
169 1 0.274802 0.817384 0.5
170 1 0.242364 0.855769 0.5
181 3 0 0.900198 0.5
182 3 0.025 0.94975 0.5
183 3 0.05 0.900198 0.5
184 3 0.075 0.94975 0.5
185 3 0.1 0.900198 0.5
186 3 0.125 0.94975 0.5
187 3 0.15 0.900198 0.5
188 3 0.175 0.94975 0.5
189 3 0.2 0.900198 0.5
190 3 0.225 0.94975 0.5
210 3 0.45 0.999302 0.5
209 3 0.4 0.999302 0.5
208 3 0.35 0.999302 0.5
207 3 0.3 0.999302 0.5
206 3 0.25 0.999302 0.5
112 1 0.331056 0.593089 0.5
114 1 0.372496 0.553409 0.5
116 1 0.414228 0.558204 0.5
118 1 0.453043 0.57178 0.5
117 1 0.421565 0.508792 0.5
131 1 0.363568 0.62486 0.5
132 1 0.277456 0.689309 0.5
133 1 0.410339 0.638248 0.5
134 1 0.373407 0.671427 0.5
135 1 0.500557 0.642456 0.5
350 1 0.0183776 0.662652 0.5
137 1 0.450791 0.617878 0.5
105 1 0.152875 0.531388 0.5
139 1 0.491311 0.592295 0.5
121 1 0.0653898 0.572935 0.5
151 1 0.315639 0.729512 0.5
152 1 0.347381 0.763581 0.5
153 1 0.335809 0.660069 0.5
154 1 0.371819 0.7156 0.5
155 1 0.412514 0.693211 0.5
156 1 0.444424 0.783276 0.5
157 1 0.457707 0.695744 0.5
328 1 0.0180067 0.553811 0.5
101 1 0.106013 0.573667 0.5
102 1 0.0434084 0.515629 0.5
171 1 0.316229 0.792114 0.5
172 1 0.28493 0.861307 0.5
173 1 0.389848 0.782197 0.5
174 1 0.327608 0.861671 0.5
175 1 0.35776 0.81963 0.5
176 1 0.37614 0.862659 0.5
177 1 0.479404 0.747655 0.5
178 1 0.406764 0.828841 0.5
109 1 0.301782 0.544523 0.5
180 1 0.454732 0.850864 0.5
191 3 0.25 0.900198 0.5
192 3 0.275 0.94975 0.5
193 3 0.3 0.900198 0.5
194 3 0.325 0.94975 0.5
195 3 0.35 0.900198 0.5
196 3 0.375 0.94975 0.5
197 3 0.4 0.900198 0.5
198 3 0.425 0.94975 0.5
113 1 0.342512 0.517711 0.5
111 1 0.27978 0.589909 0.5
372 1 0.495311 0.851125 0.5
369 1 0.0293664 0.725593 0.5
370 1 0.0238693 0.774434 0.5
119 1 0.471132 0.511619 0.5
349 1 0.0237568 0.59817 0.5
107 1 0.269176 0.505478 0.5
103 1 0.0845614 0.502335 0.5
211 2 0.5 9.91047e-05 0.5
212 2 0.525 0.0496514 0.5
213 2 0.55 9.91047e-05 0.5
214 2 0.575 0.0496514 0.5
215 2 0.6 9.91047e-05 0.5
216 2 0.625 0.0496514 0.5
217 2 0.65 9.91047e-05 0.5
218 2 0.675 0.0496514 0.5
219 2 0.7 9.91047e-05 0.5
220 2 0.725 0.0496514 0.5
231 2 0.5 0.0992038 0.5
100 1 0.505888 0.458683 0.5
233 2 0.55 0.0992038 0.5
234 1 0.587233 0.144927 0.5
235 2 0.6 0.0992038 0.5
236 1 0.637084 0.144638 0.5
237 2 0.65 0.0992038 0.5
238 1 0.714859 0.216488 0.5
239 2 0.7 0.0992038 0.5
240 1 0.732298 0.165897 0.5
251 1 0.582129 0.193265 0.5
252 1 0.615663 0.242397 0.5
253 1 0.624331 0.196373 0.5
254 1 0.655848 0.232613 0.5
255 1 0.677305 0.189069 0.5
256 1 0.742461 0.256429 0.5
257 1 0.765908 0.215345 0.5
258 1 0.849395 0.328041 0.5
259 1 0.68909 0.142292 0.5
260 1 0.803842 0.324997 0.5
271 1 0.639781 0.286015 0.5
272 1 0.549378 0.340182 0.5
273 1 0.590907 0.344618 0.5
274 1 0.651445 0.420634 0.5
275 1 0.63424 0.33656 0.5
276 1 0.671065 0.374688 0.5
277 1 0.702635 0.340858 0.5
278 1 0.720594 0.380806 0.5
279 1 0.768408 0.374515 0.5
280 1 0.803259 0.402931 0.5
40 1 0.532439 0.195518 0.5
292 1 0.554921 0.425242 0.5
293 1 0.605454 0.408672 0.5
294 1 0.628008 0.458198 0.5
295 1 0.587725 0.451845 0.5
296 1 0.696288 0.423463 0.5
297 1 0.75227 0.423468 0.5
298 1 0.719607 0.467684 0.5
299 1 0.794237 0.453695 0.5
300 1 0.757114 0.485431 0.5
323 1 0.894359 0.427332 0.5
80 1 0.534923 0.288346 0.5
315 1 0.671068 0.473355 0.5
325 1 0.919654 0.472884 0.5
291 1 0.511598 0.371745 0.5
221 2 0.75 9.91047e-05 0.5
222 2 0.775 0.0496514 0.5
223 2 0.8 9.91047e-05 0.5
224 2 0.825 0.0496514 0.5
225 2 0.85 9.91047e-05 0.5
226 2 0.875 0.0496514 0.5
227 2 0.9 9.91047e-05 0.5
228 2 0.925 0.0496514 0.5
229 2 0.95 9.91047e-05 0.5
230 2 0.975 0.0496514 0.5
241 2 0.75 0.0992038 0.5
242 1 0.796167 0.179293 0.5
243 2 0.8 0.0992038 0.5
244 1 0.773306 0.135609 0.5
245 2 0.85 0.0992038 0.5
246 1 0.881998 0.146638 0.5
247 2 0.9 0.0992038 0.5
248 1 0.929272 0.144184 0.5
249 2 0.95 0.0992038 0.5
250 1 0.973727 0.151183 0.5
261 1 0.752183 0.329717 0.5
262 1 0.807671 0.247191 0.5
263 1 0.839386 0.188862 0.5
264 1 0.89696 0.252802 0.5
265 1 0.820745 0.14342 0.5
266 1 0.880443 0.197017 0.5
267 1 0.921995 0.194901 0.5
268 1 0.94114 0.239791 0.5
269 1 0.962782 0.198026 0.5
270 1 0.981512 0.24812 0.5
281 1 0.827649 0.288465 0.5
282 1 0.895565 0.338176 0.5
283 1 0.854769 0.238345 0.5
284 1 0.91161 0.381969 0.5
285 1 0.940633 0.339116 0.5
286 1 0.962761 0.382828 0.5
287 1 0.91302 0.296071 0.5
288 1 0.988458 0.331082 0.5
289 1 0.954554 0.288866 0.5
321 1 0.868962 0.478816 0.5
301 1 0.850979 0.414057 0.5
302 1 0.9355 0.431951 0.5
303 1 0.870882 0.375437 0.5
304 1 0.962685 0.47159 0.5
99 1 0.504468 0.32699 0.5
232 1 0.542256 0.147 0.5
59 1 0.557257 0.246664 0.5
58 1 0.514499 0.242603 0.5
60 1 0.579294 0.292581 0.5
311 1 0.543669 0.471663 0.5
319 1 0.785174 0.522087 0.5
314 1 0.610761 0.537881 0.5
351 1 0.599606 0.704838 0.5
318 1 0.751071 0.550477 0.5